r 2.650417177 _2_ AGT  --- 0 cbr 532 [0 ffffffff d 800] ------- [1:0 2:0 25 0] [0] 6 6
r 2.671252092 _2_ AGT  --- 0 cbr 532 [0 ffffffff f 800] ------- [1:0 2:0 25 0] [0] 6 6
r 3.135929664 _2_ AGT  --- 1 cbr 532 [0 ffffffff f 800] ------- [1:0 2:0 25 0] [1] 6 6
r 3.156320424 _2_ AGT  --- 1 cbr 532 [0 ffffffff d 800] ------- [1:0 2:0 25 0] [1] 6 6
r 4.051236791 _2_ AGT  --- 2 cbr 532 [0 ffffffff d 800] ------- [1:0 2:0 24 0] [2] 7 6
r 4.060977778 _2_ AGT  --- 2 cbr 532 [0 ffffffff f 800] ------- [1:0 2:0 24 0] [2] 7 6
r 5.440526240 _2_ AGT  --- 3 cbr 532 [0 ffffffff f 800] ------- [1:0 2:0 25 0] [3] 6 6
r 6.961913951 _2_ AGT  --- 4 cbr 532 [0 ffffffff f 800] ------- [1:0 2:0 25 0] [4] 6 6
r 7.749099906 _9_ AGT  --- 5 cbr 532 [0 ffffffff 8 800] ------- [7:2 9:0 27 0] [0] 4 4
r 7.754230035 _9_ AGT  --- 5 cbr 532 [0 ffffffff 17 800] ------- [7:2 9:0 27 0] [0] 4 4
r 7.759300807 _9_ AGT  --- 5 cbr 532 [0 ffffffff 4 800] ------- [7:2 9:0 27 0] [0] 4 4
r 7.764511454 _9_ AGT  --- 5 cbr 532 [0 ffffffff f 800] ------- [7:2 9:0 26 0] [0] 5 4
r 7.775162235 _9_ AGT  --- 5 cbr 532 [0 ffffffff 2d 800] ------- [7:2 9:0 26 0] [0] 5 4
r 7.780092605 _9_ AGT  --- 5 cbr 532 [0 ffffffff d 800] ------- [7:2 9:0 26 0] [0] 5 4
r 7.784983794 _9_ AGT  --- 5 cbr 532 [0 ffffffff 2e 800] ------- [7:2 9:0 27 0] [0] 4 4
r 7.789874090 _9_ AGT  --- 5 cbr 532 [0 ffffffff 2c 800] ------- [7:2 9:0 27 0] [0] 4 4
r 8.355699828 _2_ AGT  --- 6 cbr 532 [0 ffffffff f 800] ------- [1:0 2:0 25 0] [5] 6 6
r 9.087847696 _9_ AGT  --- 7 cbr 532 [0 ffffffff 2e 800] ------- [7:2 9:0 28 0] [1] 3 3
r 9.095009363 _9_ AGT  --- 7 cbr 532 [0 ffffffff d 800] ------- [7:2 9:0 27 0] [1] 4 3
r 9.104078527 _9_ AGT  --- 7 cbr 532 [0 ffffffff 17 800] ------- [7:2 9:0 27 0] [1] 4 3
r 9.109049155 _9_ AGT  --- 7 cbr 532 [0 ffffffff f 800] ------- [7:2 9:0 26 0] [1] 5 3
r 9.114159968 _9_ AGT  --- 7 cbr 532 [0 ffffffff 4 800] ------- [7:2 9:0 27 0] [1] 4 3
r 9.119250677 _9_ AGT  --- 7 cbr 532 [0 ffffffff 2d 800] ------- [7:2 9:0 27 0] [1] 4 3
r 9.124041361 _9_ AGT  --- 7 cbr 532 [0 ffffffff 2c 800] ------- [7:2 9:0 28 0] [1] 3 3
r 9.145698603 _9_ AGT  --- 7 cbr 532 [0 ffffffff 2a 800] ------- [7:2 9:0 28 0] [1] 3 3
r 9.150488609 _9_ AGT  --- 7 cbr 532 [0 ffffffff 8 800] ------- [7:2 9:0 28 0] [1] 3 3
r 9.660726172 _2_ AGT  --- 8 cbr 532 [0 ffffffff f 800] ------- [1:0 2:0 25 0] [6] 6 6
r 10.271887025 _9_ AGT  --- 9 cbr 532 [0 ffffffff 2e 800] ------- [7:2 9:0 28 0] [2] 3 3
r 10.282232337 _9_ AGT  --- 9 cbr 532 [0 ffffffff 2a 800] ------- [7:2 9:0 27 0] [2] 4 3
r 10.287022778 _9_ AGT  --- 9 cbr 532 [0 ffffffff 17 800] ------- [7:2 9:0 27 0] [2] 4 3
r 10.291972999 _9_ AGT  --- 9 cbr 532 [0 ffffffff d 800] ------- [7:2 9:0 27 0] [2] 4 3
r 10.296903390 _9_ AGT  --- 9 cbr 532 [0 ffffffff 4 800] ------- [7:2 9:0 27 0] [2] 4 3
r 10.301714036 _9_ AGT  --- 9 cbr 532 [0 ffffffff 2d 800] ------- [7:2 9:0 27 0] [2] 4 3
r 10.306684892 _9_ AGT  --- 9 cbr 532 [0 ffffffff f 800] ------- [7:2 9:0 26 0] [2] 5 3
r 10.322005219 _9_ AGT  --- 9 cbr 532 [0 ffffffff 2c 800] ------- [7:2 9:0 27 0] [2] 4 3
r 10.327215518 _9_ AGT  --- 9 cbr 532 [0 ffffffff 8 800] ------- [7:2 9:0 27 0] [2] 4 3
r 10.845739302 _2_ AGT  --- 10 cbr 532 [0 ffffffff f 800] ------- [1:0 2:0 25 0] [7] 6 6
r 11.045068002 _9_ AGT  --- 11 cbr 532 [0 ffffffff 2e 800] ------- [7:2 9:0 28 0] [3] 3 3
r 11.054669224 _9_ AGT  --- 11 cbr 532 [0 ffffffff 8 800] ------- [7:2 9:0 27 0] [3] 4 3
r 11.059759581 _9_ AGT  --- 11 cbr 532 [0 ffffffff 2d 800] ------- [7:2 9:0 27 0] [3] 4 3
r 11.064550510 _9_ AGT  --- 11 cbr 532 [0 ffffffff 4 800] ------- [7:2 9:0 27 0] [3] 4 3
r 11.076371761 _9_ AGT  --- 11 cbr 532 [0 ffffffff 1f 800] ------- [7:2 9:0 26 0] [3] 5 3
r 11.116945055 _9_ AGT  --- 11 cbr 532 [0 ffffffff 2c 800] ------- [7:2 9:0 27 0] [3] 4 3
r 11.121775310 _9_ AGT  --- 11 cbr 532 [0 ffffffff 2a 800] ------- [7:2 9:0 27 0] [3] 4 3
r 11.577242683 _9_ AGT  --- 12 cbr 532 [0 ffffffff 4 800] ------- [7:2 9:0 27 0] [4] 4 4
r 11.588411949 _9_ AGT  --- 12 cbr 532 [0 ffffffff d 800] ------- [7:2 9:0 27 0] [4] 4 4
r 11.593542540 _9_ AGT  --- 12 cbr 532 [0 ffffffff 2d 800] ------- [7:2 9:0 26 0] [4] 5 4
r 11.598513509 _9_ AGT  --- 12 cbr 532 [0 ffffffff f 800] ------- [7:2 9:0 26 0] [4] 5 4
r 11.603503540 _9_ AGT  --- 12 cbr 532 [0 ffffffff 17 800] ------- [7:2 9:0 26 0] [4] 5 4
r 11.608514509 _9_ AGT  --- 12 cbr 532 [0 ffffffff 2e 800] ------- [7:2 9:0 27 0] [4] 4 4
r 11.613404869 _9_ AGT  --- 12 cbr 532 [0 ffffffff 2c 800] ------- [7:2 9:0 26 0] [4] 5 4
r 11.618735559 _9_ AGT  --- 12 cbr 532 [0 ffffffff 1f 800] ------- [7:2 9:0 25 0] [4] 6 4
r 11.623545976 _9_ AGT  --- 12 cbr 532 [0 ffffffff 21 800] ------- [7:2 9:0 25 0] [4] 6 4
r 11.644017476 _9_ AGT  --- 12 cbr 532 [0 ffffffff 8 800] ------- [7:2 9:0 27 0] [4] 4 4
r 11.648827512 _9_ AGT  --- 12 cbr 532 [0 ffffffff 2a 800] ------- [7:2 9:0 26 0] [4] 5 4
r 11.888172568 _2_ AGT  --- 13 cbr 532 [0 ffffffff 18 800] ------- [1:0 2:0 26 0] [8] 5 5
r 11.893062986 _2_ AGT  --- 13 cbr 532 [0 ffffffff a 800] ------- [1:0 2:0 26 0] [8] 5 5
r 12.440982788 _9_ AGT  --- 14 cbr 532 [0 ffffffff 8 800] ------- [7:2 9:0 26 0] [5] 5 4
r 12.450784115 _9_ AGT  --- 14 cbr 532 [0 ffffffff 2e 800] ------- [7:2 9:0 27 0] [5] 4 4
r 12.455794228 _9_ AGT  --- 14 cbr 532 [0 ffffffff 4 800] ------- [7:2 9:0 27 0] [5] 4 4
r 12.465655854 _9_ AGT  --- 14 cbr 532 [0 ffffffff d 800] ------- [7:2 9:0 27 0] [5] 4 4
r 12.470906539 _9_ AGT  --- 14 cbr 532 [0 ffffffff f 800] ------- [7:2 9:0 26 0] [5] 5 4
r 12.476735100 _9_ AGT  --- 14 cbr 532 [0 ffffffff 2d 800] ------- [7:2 9:0 25 0] [5] 6 4
r 12.481645379 _9_ AGT  --- 14 cbr 532 [0 ffffffff 1f 800] ------- [7:2 9:0 25 0] [5] 6 4
r 12.486475848 _9_ AGT  --- 14 cbr 532 [0 ffffffff 2a 800] ------- [7:2 9:0 25 0] [5] 6 4
r 12.491346695 _9_ AGT  --- 14 cbr 532 [0 ffffffff 17 800] ------- [7:2 9:0 26 0] [5] 5 4
r 12.496217271 _9_ AGT  --- 14 cbr 532 [0 ffffffff 2c 800] ------- [7:2 9:0 25 0] [5] 6 4
r 12.501368258 _9_ AGT  --- 14 cbr 532 [0 ffffffff 21 800] ------- [7:2 9:0 24 0] [5] 7 4
r 12.526025944 _9_ AGT  --- 14 cbr 532 [0 ffffffff 18 800] ------- [7:2 9:0 24 0] [5] 7 4
r 12.672673443 _2_ AGT  --- 15 cbr 532 [0 ffffffff a 800] ------- [1:0 2:0 26 0] [9] 5 5
r 12.682514475 _2_ AGT  --- 15 cbr 532 [0 ffffffff 18 800] ------- [1:0 2:0 26 0] [9] 5 5
r 12.711967964 _2_ AGT  --- 15 cbr 532 [0 ffffffff f 800] ------- [1:0 2:0 25 0] [9] 6 5
r 12.736260576 _2_ AGT  --- 15 cbr 532 [0 ffffffff 17 800] ------- [1:0 2:0 25 0] [9] 6 5
r 13.486143039 _9_ AGT  --- 16 cbr 532 [0 ffffffff 2e 800] ------- [7:2 9:0 27 0] [6] 4 4
r 13.490913058 _9_ AGT  --- 16 cbr 532 [0 ffffffff d 800] ------- [7:2 9:0 27 0] [6] 4 4
r 13.496223132 _9_ AGT  --- 16 cbr 532 [0 ffffffff 4 800] ------- [7:2 9:0 27 0] [6] 4 4
r 13.501033546 _9_ AGT  --- 16 cbr 532 [0 ffffffff 17 800] ------- [7:2 9:0 26 0] [6] 5 4
r 13.505803951 _9_ AGT  --- 16 cbr 532 [0 ffffffff 2d 800] ------- [7:2 9:0 26 0] [6] 5 4
r 13.510833964 _9_ AGT  --- 16 cbr 532 [0 ffffffff 1f 800] ------- [7:2 9:0 26 0] [6] 5 4
r 13.516125130 _9_ AGT  --- 16 cbr 532 [0 ffffffff f 800] ------- [7:2 9:0 26 0] [6] 5 4
r 13.542613553 _9_ AGT  --- 16 cbr 532 [0 ffffffff 2c 800] ------- [7:2 9:0 26 0] [6] 5 4
r 13.547484387 _9_ AGT  --- 16 cbr 532 [0 ffffffff 21 800] ------- [7:2 9:0 25 0] [6] 6 4
r 13.581436414 _9_ AGT  --- 16 cbr 532 [0 ffffffff 2a 800] ------- [7:2 9:0 26 0] [6] 5 4
r 13.597362141 _9_ AGT  --- 16 cbr 532 [0 ffffffff 8 800] ------- [7:2 9:0 26 0] [6] 5 4
r 13.617284233 _2_ AGT  --- 17 cbr 532 [0 ffffffff f 800] ------- [1:0 2:0 25 0] [10] 6 6
r 13.637246040 _2_ AGT  --- 17 cbr 532 [0 ffffffff 17 800] ------- [1:0 2:0 25 0] [10] 6 6
r 13.671983576 _2_ AGT  --- 17 cbr 532 [0 ffffffff 18 800] ------- [1:0 2:0 24 0] [10] 7 6
r 13.686815166 _2_ AGT  --- 17 cbr 532 [0 ffffffff a 800] ------- [1:0 2:0 24 0] [10] 7 6
r 14.364027479 _2_ AGT  --- 18 cbr 532 [0 ffffffff 1f 800] ------- [1:0 2:0 25 0] [11] 6 5
r 14.378498415 _2_ AGT  --- 18 cbr 532 [0 ffffffff 18 800] ------- [1:0 2:0 25 0] [11] 6 5
r 14.404045276 _2_ AGT  --- 18 cbr 532 [0 ffffffff 2d 800] ------- [1:0 2:0 25 0] [11] 6 5
r 14.408855734 _2_ AGT  --- 18 cbr 532 [0 ffffffff 17 800] ------- [1:0 2:0 25 0] [11] 6 5
r 14.423467414 _2_ AGT  --- 18 cbr 532 [0 ffffffff f 800] ------- [1:0 2:0 25 0] [11] 6 5
r 14.724660063 _9_ AGT  --- 19 cbr 532 [0 ffffffff d 800] ------- [7:2 9:0 27 0] [7] 4 4
r 14.731844181 _9_ AGT  --- 19 cbr 532 [0 ffffffff 4 800] ------- [7:2 9:0 26 0] [7] 5 4
r 14.738207373 _9_ AGT  --- 19 cbr 532 [0 ffffffff 17 800] ------- [7:2 9:0 26 0] [7] 5 4
r 14.743157957 _9_ AGT  --- 19 cbr 532 [0 ffffffff f 800] ------- [7:2 9:0 26 0] [7] 5 4
r 14.748068038 _9_ AGT  --- 19 cbr 532 [0 ffffffff 1f 800] ------- [7:2 9:0 26 0] [7] 5 4
r 14.758009733 _9_ AGT  --- 19 cbr 532 [0 ffffffff 2d 800] ------- [7:2 9:0 25 0] [7] 6 4
r 14.762840305 _9_ AGT  --- 19 cbr 532 [0 ffffffff 18 800] ------- [7:2 9:0 25 0] [7] 6 4
r 14.767650398 _9_ AGT  --- 19 cbr 532 [0 ffffffff 2c 800] ------- [7:2 9:0 25 0] [7] 6 4
r 14.772520593 _9_ AGT  --- 19 cbr 532 [0 ffffffff 2a 800] ------- [7:2 9:0 26 0] [7] 5 4
r 14.777331563 _9_ AGT  --- 19 cbr 532 [0 ffffffff 8 800] ------- [7:2 9:0 26 0] [7] 5 4
r 14.796679215 _9_ AGT  --- 19 cbr 532 [0 ffffffff 11 800] ------- [7:2 9:0 25 0] [7] 6 4
r 14.811250773 _9_ AGT  --- 19 cbr 532 [0 ffffffff 10 800] ------- [7:2 9:0 26 0] [7] 5 4
r 14.831437442 _9_ AGT  --- 19 cbr 532 [0 ffffffff 21 800] ------- [7:2 9:0 25 0] [7] 6 4
r 15.238311588 _2_ AGT  --- 20 cbr 532 [0 ffffffff 17 800] ------- [1:0 2:0 26 0] [12] 5 5
r 15.243142094 _2_ AGT  --- 20 cbr 532 [0 ffffffff 18 800] ------- [1:0 2:0 26 0] [12] 5 5
r 15.247972171 _2_ AGT  --- 20 cbr 532 [0 ffffffff a 800] ------- [1:0 2:0 26 0] [12] 5 5
r 15.259428227 _2_ AGT  --- 20 cbr 532 [0 ffffffff 1f 800] ------- [1:0 2:0 26 0] [12] 5 5
r 15.264722731 _2_ AGT  --- 20 cbr 532 [0 ffffffff f 800] ------- [1:0 2:0 26 0] [12] 5 5
r 15.284789993 _2_ AGT  --- 20 cbr 532 [0 ffffffff 2d 800] ------- [1:0 2:0 26 0] [12] 5 5
r 15.711563995 _9_ AGT  --- 21 cbr 532 [0 ffffffff 11 800] ------- [7:2 9:0 26 0] [8] 5 4
r 15.716434606 _9_ AGT  --- 21 cbr 532 [0 ffffffff 10 800] ------- [7:2 9:0 26 0] [8] 5 4
r 15.726295845 _9_ AGT  --- 21 cbr 532 [0 ffffffff 8 800] ------- [7:2 9:0 27 0] [8] 4 4
r 15.731106388 _9_ AGT  --- 21 cbr 532 [0 ffffffff d 800] ------- [7:2 9:0 27 0] [8] 4 4
r 15.742463205 _9_ AGT  --- 21 cbr 532 [0 ffffffff 1f 800] ------- [7:2 9:0 26 0] [8] 5 4
r 15.747373362 _9_ AGT  --- 21 cbr 532 [0 ffffffff 2a 800] ------- [7:2 9:0 25 0] [8] 6 4
r 15.752244131 _9_ AGT  --- 21 cbr 532 [0 ffffffff 21 800] ------- [7:2 9:0 25 0] [8] 6 4
r 15.757034154 _9_ AGT  --- 21 cbr 532 [0 ffffffff 2c 800] ------- [7:2 9:0 25 0] [8] 6 4
r 15.761824904 _9_ AGT  --- 21 cbr 532 [0 ffffffff 18 800] ------- [7:2 9:0 24 0] [8] 7 4
r 15.766895302 _9_ AGT  --- 21 cbr 532 [0 ffffffff 17 800] ------- [7:2 9:0 26 0] [8] 5 4
r 15.771726255 _9_ AGT  --- 21 cbr 532 [0 ffffffff a 800] ------- [7:2 9:0 25 0] [8] 6 4
r 15.776556268 _9_ AGT  --- 21 cbr 532 [0 ffffffff 2d 800] ------- [7:2 9:0 25 0] [8] 6 4
r 16.195079502 _2_ AGT  --- 22 cbr 532 [0 ffffffff 17 800] ------- [1:0 2:0 26 0] [13] 5 5
r 16.210035060 _2_ AGT  --- 22 cbr 532 [0 ffffffff 1f 800] ------- [1:0 2:0 25 0] [13] 6 5
r 16.214905528 _2_ AGT  --- 22 cbr 532 [0 ffffffff 2d 800] ------- [1:0 2:0 25 0] [13] 6 5
r 16.224586224 _2_ AGT  --- 22 cbr 532 [0 ffffffff a 800] ------- [1:0 2:0 25 0] [13] 6 5
r 16.507108079 _37_ AGT  --- 23 cbr 532 [0 ffffffff a 800] ------- [36:1 37:0 26 0] [0] 5 5
r 16.531281206 _37_ AGT  --- 23 cbr 532 [0 ffffffff 2d 800] ------- [36:1 37:0 26 0] [0] 5 5
r 16.536071449 _37_ AGT  --- 23 cbr 532 [0 ffffffff 2c 800] ------- [36:1 37:0 26 0] [0] 5 5
r 16.540901609 _37_ AGT  --- 23 cbr 532 [0 ffffffff 21 800] ------- [36:1 37:0 26 0] [0] 5 5
r 16.545772072 _37_ AGT  --- 23 cbr 532 [0 ffffffff 18 800] ------- [36:1 37:0 26 0] [0] 5 5
r 16.653187703 _37_ AGT  --- 23 cbr 532 [0 ffffffff 29 800] ------- [36:1 37:0 22 0] [0] 9 5
r 16.742445875 _2_ AGT  --- 24 cbr 532 [0 ffffffff 17 800] ------- [1:0 2:0 25 0] [14] 6 5
r 16.752306525 _2_ AGT  --- 24 cbr 532 [0 ffffffff 18 800] ------- [1:0 2:0 25 0] [14] 6 5
r 16.757336527 _2_ AGT  --- 24 cbr 532 [0 ffffffff a 800] ------- [1:0 2:0 25 0] [14] 6 5
r 16.762167134 _2_ AGT  --- 24 cbr 532 [0 ffffffff 2d 800] ------- [1:0 2:0 24 0] [14] 7 5
r 16.767017961 _2_ AGT  --- 24 cbr 532 [0 ffffffff f 800] ------- [1:0 2:0 25 0] [14] 6 5
r 16.771808246 _2_ AGT  --- 24 cbr 532 [0 ffffffff 1f 800] ------- [1:0 2:0 25 0] [14] 6 5
r 16.869538747 _9_ AGT  --- 25 cbr 532 [0 ffffffff 1f 800] ------- [7:2 9:0 25 0] [9] 6 4
r 16.874403553 _9_ AGT  --- 25 cbr 532 [0 ffffffff a 800] ------- [7:2 9:0 25 0] [9] 6 4
r 16.884044903 _9_ AGT  --- 25 cbr 532 [0 ffffffff 18 800] ------- [7:2 9:0 25 0] [9] 6 4
r 16.894030440 _9_ AGT  --- 25 cbr 532 [0 ffffffff 2a 800] ------- [7:2 9:0 24 0] [9] 7 4
r 16.899185977 _9_ AGT  --- 25 cbr 532 [0 ffffffff 2c 800] ------- [7:2 9:0 24 0] [9] 7 4
r 16.904056193 _9_ AGT  --- 25 cbr 532 [0 ffffffff 21 800] ------- [7:2 9:0 24 0] [9] 7 4
r 16.909146634 _9_ AGT  --- 25 cbr 532 [0 ffffffff 2d 800] ------- [7:2 9:0 25 0] [9] 6 4
r 16.913937031 _9_ AGT  --- 25 cbr 532 [0 ffffffff 17 800] ------- [7:2 9:0 25 0] [9] 6 4
r 16.922215183 _9_ AGT  --- 25 cbr 532 [0 ffffffff 11 800] ------- [7:2 9:0 27 0] [9] 4 4
r 16.931896016 _9_ AGT  --- 25 cbr 532 [0 ffffffff 10 800] ------- [7:2 9:0 27 0] [9] 4 4
r 17.926399135 _2_ AGT  --- 26 cbr 532 [0 ffffffff 17 800] ------- [1:0 2:0 25 0] [15] 6 5
r 17.936683892 _2_ AGT  --- 26 cbr 532 [0 ffffffff a 800] ------- [1:0 2:0 25 0] [15] 6 5
r 17.947014659 _2_ AGT  --- 26 cbr 532 [0 ffffffff 18 800] ------- [1:0 2:0 25 0] [15] 6 5
r 18.074355393 _37_ AGT  --- 27 cbr 532 [0 ffffffff 2d 800] ------- [36:1 37:0 23 0] [1] 8 5
r 18.084116170 _37_ AGT  --- 27 cbr 532 [0 ffffffff 9 800] ------- [36:1 37:0 24 0] [1] 7 5
r 18.088966199 _37_ AGT  --- 27 cbr 532 [0 ffffffff 2c 800] ------- [36:1 37:0 23 0] [1] 8 5
r 18.093876675 _37_ AGT  --- 27 cbr 532 [0 ffffffff 21 800] ------- [36:1 37:0 24 0] [1] 7 5
r 18.353837920 _9_ AGT  --- 28 cbr 532 [0 ffffffff 18 800] ------- [7:2 9:0 26 0] [10] 5 4
r 18.378674810 _9_ AGT  --- 28 cbr 532 [0 ffffffff 2a 800] ------- [7:2 9:0 25 0] [10] 6 4
r 18.398277166 _9_ AGT  --- 28 cbr 532 [0 ffffffff 10 800] ------- [7:2 9:0 27 0] [10] 4 4
r 18.409027594 _9_ AGT  --- 28 cbr 532 [0 ffffffff 21 800] ------- [7:2 9:0 24 0] [10] 7 4
r 18.413899011 _9_ AGT  --- 28 cbr 532 [0 ffffffff 25 800] ------- [7:2 9:0 25 0] [10] 6 4
r 18.418749049 _9_ AGT  --- 28 cbr 532 [0 ffffffff 2c 800] ------- [7:2 9:0 26 0] [10] 5 4
r 18.712825435 _37_ AGT  --- 29 cbr 532 [0 ffffffff 18 800] ------- [36:1 37:0 26 0] [2] 5 5
r 18.748597166 _37_ AGT  --- 29 cbr 532 [0 ffffffff 2d 800] ------- [36:1 37:0 26 0] [2] 5 5
r 18.753427188 _37_ AGT  --- 29 cbr 532 [0 ffffffff 2c 800] ------- [36:1 37:0 25 0] [2] 6 5
r 18.758782691 _37_ AGT  --- 29 cbr 532 [0 ffffffff 9 800] ------- [36:1 37:0 26 0] [2] 5 5
r 18.763632760 _37_ AGT  --- 29 cbr 532 [0 ffffffff 21 800] ------- [36:1 37:0 26 0] [2] 5 5
r 18.820409192 _37_ AGT  --- 29 cbr 532 [0 ffffffff 29 800] ------- [36:1 37:0 22 0] [2] 9 5
r 18.878688854 _2_ AGT  --- 30 cbr 532 [0 ffffffff 18 800] ------- [1:0 2:0 24 0] [16] 7 5
r 18.888469916 _2_ AGT  --- 30 cbr 532 [0 ffffffff a 800] ------- [1:0 2:0 24 0] [16] 7 5
r 18.898311246 _2_ AGT  --- 30 cbr 532 [0 ffffffff 1f 800] ------- [1:0 2:0 23 0] [16] 8 5
r 18.903101405 _2_ AGT  --- 30 cbr 532 [0 ffffffff f 800] ------- [1:0 2:0 23 0] [16] 8 5
r 18.918017935 _2_ AGT  --- 30 cbr 532 [0 ffffffff 2d 800] ------- [1:0 2:0 25 0] [16] 6 5
r 18.922828369 _2_ AGT  --- 30 cbr 532 [0 ffffffff 2c 800] ------- [1:0 2:0 24 0] [16] 7 5
r 19.297796288 _2_ AGT  --- 31 cbr 532 [0 ffffffff a 800] ------- [1:0 2:0 26 0] [17] 5 5
r 19.302707303 _2_ AGT  --- 31 cbr 532 [0 ffffffff 2c 800] ------- [1:0 2:0 26 0] [17] 5 5
r 19.307637465 _2_ AGT  --- 31 cbr 532 [0 ffffffff 18 800] ------- [1:0 2:0 26 0] [17] 5 5
r 19.335639968 _2_ AGT  --- 31 cbr 532 [0 ffffffff 1f 800] ------- [1:0 2:0 25 0] [17] 6 5
r 19.340874689 _2_ AGT  --- 31 cbr 532 [0 ffffffff 2d 800] ------- [1:0 2:0 26 0] [17] 5 5
r 19.376178301 _2_ AGT  --- 31 cbr 532 [0 ffffffff f 800] ------- [1:0 2:0 25 0] [17] 6 5
r 19.476958832 _37_ AGT  --- 32 cbr 532 [0 ffffffff 2c 800] ------- [36:1 37:0 25 0] [3] 6 5
r 19.482169572 _37_ AGT  --- 32 cbr 532 [0 ffffffff 2d 800] ------- [36:1 37:0 25 0] [3] 6 5
r 19.486980023 _37_ AGT  --- 32 cbr 532 [0 ffffffff 21 800] ------- [36:1 37:0 24 0] [3] 7 5
r 19.491830023 _37_ AGT  --- 32 cbr 532 [0 ffffffff 9 800] ------- [36:1 37:0 25 0] [3] 6 5
r 19.516711720 _37_ AGT  --- 32 cbr 532 [0 ffffffff 18 800] ------- [36:1 37:0 25 0] [3] 6 5
r 19.521582162 _37_ AGT  --- 32 cbr 532 [0 ffffffff 17 800] ------- [36:1 37:0 25 0] [3] 6 5
r 19.668786061 _19_ AGT  --- 33 cbr 532 [0 ffffffff 19 800] ------- [17:3 19:0 29 0] [0] 2 2
r 19.673596304 _19_ AGT  --- 33 cbr 532 [0 ffffffff 30 800] ------- [17:3 19:0 29 0] [0] 2 2
r 19.678427005 _19_ AGT  --- 33 cbr 532 [0 ffffffff d 800] ------- [17:3 19:0 29 0] [0] 2 2
r 19.698574024 _19_ AGT  --- 33 cbr 532 [0 ffffffff 7 800] ------- [17:3 19:0 28 0] [0] 3 2
r 19.749499221 _19_ AGT  --- 33 cbr 532 [0 ffffffff 12 800] ------- [17:3 19:0 28 0] [0] 3 2
r 19.813310202 _9_ AGT  --- 34 cbr 532 [0 ffffffff 18 800] ------- [7:2 9:0 25 0] [11] 6 4
r 19.818300578 _9_ AGT  --- 34 cbr 532 [0 ffffffff a 800] ------- [7:2 9:0 25 0] [11] 6 4
r 19.838062162 _9_ AGT  --- 34 cbr 532 [0 ffffffff 17 800] ------- [7:2 9:0 25 0] [11] 6 4
r 19.842932526 _9_ AGT  --- 34 cbr 532 [0 ffffffff 2d 800] ------- [7:2 9:0 25 0] [11] 6 4
r 19.859379816 _9_ AGT  --- 34 cbr 532 [0 ffffffff 2a 800] ------- [7:2 9:0 25 0] [11] 6 4
r 19.869321132 _9_ AGT  --- 34 cbr 532 [0 ffffffff 10 800] ------- [7:2 9:0 25 0] [11] 6 4
r 19.884086658 _9_ AGT  --- 34 cbr 532 [0 ffffffff 21 800] ------- [7:2 9:0 24 0] [11] 7 4
r 19.996228174 _37_ AGT  --- 35 cbr 532 [0 ffffffff 2d 800] ------- [36:1 37:0 26 0] [4] 5 4
r 20.001038506 _37_ AGT  --- 35 cbr 532 [0 ffffffff 18 800] ------- [36:1 37:0 26 0] [4] 5 4
r 20.006842776 _37_ AGT  --- 35 cbr 532 [0 ffffffff 17 800] ------- [36:1 37:0 26 0] [4] 5 4
r 20.036935767 _37_ AGT  --- 35 cbr 532 [0 ffffffff 2c 800] ------- [36:1 37:0 25 0] [4] 6 4
r 20.044311488 _37_ AGT  --- 35 cbr 532 [0 ffffffff 9 800] ------- [36:1 37:0 26 0] [4] 5 4
r 20.053992249 _37_ AGT  --- 35 cbr 532 [0 ffffffff 21 800] ------- [36:1 37:0 26 0] [4] 5 4
r 20.150219794 _2_ AGT  --- 36 cbr 532 [0 ffffffff 2c 800] ------- [1:0 2:0 26 0] [18] 5 5
r 20.165939893 _2_ AGT  --- 36 cbr 532 [0 ffffffff f 800] ------- [1:0 2:0 25 0] [18] 6 5
r 20.170790164 _2_ AGT  --- 36 cbr 532 [0 ffffffff 18 800] ------- [1:0 2:0 26 0] [18] 5 5
r 20.186251126 _2_ AGT  --- 36 cbr 532 [0 ffffffff a 800] ------- [1:0 2:0 26 0] [18] 5 5
r 20.191121691 _2_ AGT  --- 36 cbr 532 [0 ffffffff 1f 800] ------- [1:0 2:0 24 0] [18] 7 5
r 20.196012444 _2_ AGT  --- 36 cbr 532 [0 ffffffff 2d 800] ------- [1:0 2:0 26 0] [18] 5 5
r 20.515839260 _9_ AGT  --- 37 cbr 532 [0 ffffffff 17 800] ------- [8:1 9:1 29 0] [0] 2 2
r 20.520629490 _9_ AGT  --- 37 cbr 532 [0 ffffffff 2a 800] ------- [8:1 9:1 29 0] [0] 2 2
r 20.525699973 _9_ AGT  --- 37 cbr 532 [0 ffffffff 2d 800] ------- [8:1 9:1 28 0] [0] 3 2
r 20.530610793 _9_ AGT  --- 37 cbr 532 [0 ffffffff 10 800] ------- [8:1 9:1 29 0] [0] 2 2
r 20.555407705 _9_ AGT  --- 37 cbr 532 [0 ffffffff 25 800] ------- [8:1 9:1 28 0] [0] 3 2
r 20.565738014 _9_ AGT  --- 37 cbr 532 [0 ffffffff 21 800] ------- [8:1 9:1 28 0] [0] 3 2
r 20.601955264 _19_ AGT  --- 38 cbr 532 [0 ffffffff d 800] ------- [17:3 19:0 29 0] [1] 2 2
r 20.612700603 _19_ AGT  --- 38 cbr 532 [0 ffffffff 2e 800] ------- [17:3 19:0 28 0] [1] 3 2
r 20.623081635 _19_ AGT  --- 38 cbr 532 [0 ffffffff 12 800] ------- [17:3 19:0 28 0] [1] 3 2
r 20.639840608 _19_ AGT  --- 38 cbr 532 [0 ffffffff 19 800] ------- [17:3 19:0 28 0] [1] 3 2
r 20.644911591 _19_ AGT  --- 38 cbr 532 [0 ffffffff 7 800] ------- [17:3 19:0 26 0] [1] 5 2
r 20.668086220 _19_ AGT  --- 38 cbr 532 [0 ffffffff 30 800] ------- [17:3 19:0 28 0] [1] 3 2
r 20.749288655 _37_ AGT  --- 39 cbr 532 [0 ffffffff 17 800] ------- [36:1 37:0 26 0] [5] 5 4
r 20.754138677 _37_ AGT  --- 39 cbr 532 [0 ffffffff 2c 800] ------- [36:1 37:0 25 0] [5] 6 4
r 20.759089764 _37_ AGT  --- 39 cbr 532 [0 ffffffff 2d 800] ------- [36:1 37:0 26 0] [5] 5 4
r 20.764120248 _37_ AGT  --- 39 cbr 532 [0 ffffffff 21 800] ------- [36:1 37:0 25 0] [5] 6 4
r 20.778871216 _37_ AGT  --- 39 cbr 532 [0 ffffffff 9 800] ------- [36:1 37:0 25 0] [5] 6 4
r 20.870725200 _2_ AGT  --- 40 cbr 532 [0 ffffffff a 800] ------- [1:0 2:0 24 0] [19] 7 5
r 20.875855592 _2_ AGT  --- 40 cbr 532 [0 ffffffff f 800] ------- [1:0 2:0 24 0] [19] 7 5
r 20.880646179 _2_ AGT  --- 40 cbr 532 [0 ffffffff 2d 800] ------- [1:0 2:0 24 0] [19] 7 5
r 20.890307311 _2_ AGT  --- 40 cbr 532 [0 ffffffff 18 800] ------- [1:0 2:0 24 0] [19] 7 5
r 20.895138223 _2_ AGT  --- 40 cbr 532 [0 ffffffff 1f 800] ------- [1:0 2:0 24 0] [19] 7 5
r 21.118707505 _19_ AGT  --- 41 cbr 532 [0 ffffffff 19 800] ------- [17:3 19:0 29 0] [2] 2 2
r 21.123497778 _19_ AGT  --- 41 cbr 532 [0 ffffffff 30 800] ------- [17:3 19:0 29 0] [2] 2 2
r 21.128268505 _19_ AGT  --- 41 cbr 532 [0 ffffffff 12 800] ------- [17:3 19:0 28 0] [2] 3 2
r 21.148315271 _19_ AGT  --- 41 cbr 532 [0 ffffffff 7 800] ------- [17:3 19:0 26 0] [2] 5 2
r 21.163026886 _19_ AGT  --- 41 cbr 532 [0 ffffffff d 800] ------- [17:3 19:0 29 0] [2] 2 2
r 21.182648829 _19_ AGT  --- 41 cbr 532 [0 ffffffff 2e 800] ------- [17:3 19:0 27 0] [2] 4 2
r 21.218945983 _9_ AGT  --- 42 cbr 532 [0 ffffffff 18 800] ------- [7:2 9:0 26 0] [12] 5 4
r 21.241319704 _9_ AGT  --- 42 cbr 532 [0 ffffffff 2d 800] ------- [7:2 9:0 26 0] [12] 5 4
r 21.246089877 _9_ AGT  --- 42 cbr 532 [0 ffffffff 21 800] ------- [7:2 9:0 25 0] [12] 6 4
r 21.251160228 _9_ AGT  --- 42 cbr 532 [0 ffffffff 2a 800] ------- [7:2 9:0 25 0] [12] 6 4
r 21.256090238 _9_ AGT  --- 42 cbr 532 [0 ffffffff 17 800] ------- [7:2 9:0 25 0] [12] 6 4
r 21.260920966 _9_ AGT  --- 42 cbr 532 [0 ffffffff 10 800] ------- [7:2 9:0 27 0] [12] 4 4
r 21.301584257 _9_ AGT  --- 42 cbr 532 [0 ffffffff 1e 800] ------- [7:2 9:0 25 0] [12] 6 4
r 21.316770009 _9_ AGT  --- 42 cbr 532 [0 ffffffff 29 800] ------- [7:2 9:0 24 0] [12] 7 4
r 21.529459311 _37_ AGT  --- 43 cbr 532 [0 ffffffff 2d 800] ------- [36:1 37:0 27 0] [6] 4 4
r 21.559096165 _37_ AGT  --- 43 cbr 532 [0 ffffffff 2c 800] ------- [36:1 37:0 26 0] [6] 5 4
r 21.573891761 _37_ AGT  --- 43 cbr 532 [0 ffffffff 9 800] ------- [36:1 37:0 26 0] [6] 5 4
r 21.578982288 _37_ AGT  --- 43 cbr 532 [0 ffffffff 17 800] ------- [36:1 37:0 26 0] [6] 5 4
r 21.583812413 _37_ AGT  --- 43 cbr 532 [0 ffffffff 21 800] ------- [36:1 37:0 26 0] [6] 5 4
r 21.588662666 _37_ AGT  --- 43 cbr 532 [0 ffffffff 2a 800] ------- [36:1 37:0 27 0] [6] 4 4
r 21.730758237 _2_ AGT  --- 44 cbr 532 [0 ffffffff 2c 800] ------- [1:0 2:0 26 0] [20] 5 5
r 21.750119853 _2_ AGT  --- 44 cbr 532 [0 ffffffff 2d 800] ------- [1:0 2:0 26 0] [20] 5 5
r 21.760185253 _2_ AGT  --- 44 cbr 532 [0 ffffffff 18 800] ------- [1:0 2:0 26 0] [20] 5 5
r 21.785023177 _2_ AGT  --- 44 cbr 532 [0 ffffffff a 800] ------- [1:0 2:0 26 0] [20] 5 5
r 21.790033372 _2_ AGT  --- 44 cbr 532 [0 ffffffff f 800] ------- [1:0 2:0 25 0] [20] 6 5
r 21.795063785 _2_ AGT  --- 44 cbr 532 [0 ffffffff 1f 800] ------- [1:0 2:0 25 0] [20] 6 5
r 21.858618427 _9_ AGT  --- 45 cbr 532 [0 ffffffff 10 800] ------- [8:1 9:1 29 0] [1] 2 2
r 21.863868466 _9_ AGT  --- 45 cbr 532 [0 ffffffff 2a 800] ------- [8:1 9:1 29 0] [1] 2 2
r 21.884196102 _9_ AGT  --- 45 cbr 532 [0 ffffffff 25 800] ------- [8:1 9:1 28 0] [1] 3 2
r 21.894541439 _9_ AGT  --- 45 cbr 532 [0 ffffffff 2d 800] ------- [8:1 9:1 28 0] [1] 3 2
r 21.923845117 _9_ AGT  --- 45 cbr 532 [0 ffffffff 21 800] ------- [8:1 9:1 28 0] [1] 3 2
r 21.928875155 _9_ AGT  --- 45 cbr 532 [0 ffffffff 17 800] ------- [8:1 9:1 28 0] [1] 3 2
r 21.984465095 _9_ AGT  --- 45 cbr 532 [0 ffffffff 1e 800] ------- [8:1 9:1 26 0] [1] 5 2
r 21.998267921 _9_ AGT  --- 45 cbr 532 [0 ffffffff 29 800] ------- [8:1 9:1 25 0] [1] 6 2
r 22.255887930 _19_ AGT  --- 46 cbr 532 [0 ffffffff 11 800] ------- [17:3 19:0 30 0] [3] 1 1
r 22.265069660 _19_ AGT  --- 46 cbr 532 [0 ffffffff 12 800] ------- [17:3 19:0 29 0] [3] 2 1
r 22.285601502 _19_ AGT  --- 46 cbr 532 [0 ffffffff 3 800] ------- [17:3 19:0 28 0] [3] 3 1
r 22.326010354 _19_ AGT  --- 46 cbr 532 [0 ffffffff 30 800] ------- [17:3 19:0 29 0] [3] 2 1
r 22.356541353 _19_ AGT  --- 46 cbr 532 [0 ffffffff d 800] ------- [17:3 19:0 29 0] [3] 2 1
r 22.361391711 _19_ AGT  --- 46 cbr 532 [0 ffffffff 19 800] ------- [17:3 19:0 29 0] [3] 2 1
r 22.443012179 _9_ AGT  --- 47 cbr 532 [0 ffffffff 10 800] ------- [7:2 9:0 26 0] [13] 5 5
r 22.447842749 _9_ AGT  --- 47 cbr 532 [0 ffffffff 2d 800] ------- [7:2 9:0 26 0] [13] 5 5
r 22.458693497 _9_ AGT  --- 47 cbr 532 [0 ffffffff 17 800] ------- [7:2 9:0 25 0] [13] 6 5
r 22.463843661 _9_ AGT  --- 47 cbr 532 [0 ffffffff 21 800] ------- [7:2 9:0 25 0] [13] 6 5
r 22.468753883 _9_ AGT  --- 47 cbr 532 [0 ffffffff 2a 800] ------- [7:2 9:0 25 0] [13] 6 5
r 22.478794808 _9_ AGT  --- 47 cbr 532 [0 ffffffff 2c 800] ------- [7:2 9:0 25 0] [13] 6 5
r 22.518613891 _9_ AGT  --- 47 cbr 532 [0 ffffffff 29 800] ------- [7:2 9:0 24 0] [13] 7 5
r 22.606088506 _2_ AGT  --- 48 cbr 532 [0 ffffffff 2d 800] ------- [1:0 2:0 26 0] [21] 5 5
r 22.616394700 _2_ AGT  --- 48 cbr 532 [0 ffffffff f 800] ------- [1:0 2:0 25 0] [21] 6 5
r 22.655783313 _2_ AGT  --- 48 cbr 532 [0 ffffffff 1f 800] ------- [1:0 2:0 24 0] [21] 7 5
r 22.660853617 _2_ AGT  --- 48 cbr 532 [0 ffffffff 18 800] ------- [1:0 2:0 26 0] [21] 5 5
r 22.665724259 _2_ AGT  --- 48 cbr 532 [0 ffffffff a 800] ------- [1:0 2:0 25 0] [21] 6 5
r 22.889883092 _37_ AGT  --- 49 cbr 532 [0 ffffffff 2d 800] ------- [36:1 37:0 26 0] [7] 5 4
r 22.909894809 _37_ AGT  --- 49 cbr 532 [0 ffffffff 2a 800] ------- [36:1 37:0 26 0] [7] 5 4
r 22.929981986 _37_ AGT  --- 49 cbr 532 [0 ffffffff 9 800] ------- [36:1 37:0 25 0] [7] 6 4
r 22.934932748 _37_ AGT  --- 49 cbr 532 [0 ffffffff 21 800] ------- [36:1 37:0 25 0] [7] 6 4
r 22.939802784 _37_ AGT  --- 49 cbr 532 [0 ffffffff 17 800] ------- [36:1 37:0 25 0] [7] 6 4
r 22.955442953 _37_ AGT  --- 49 cbr 532 [0 ffffffff 2c 800] ------- [36:1 37:0 24 0] [7] 7 4
r 23.185938208 _9_ AGT  --- 50 cbr 532 [0 ffffffff 10 800] ------- [8:1 9:1 29 0] [2] 2 2
r 23.191108210 _9_ AGT  --- 50 cbr 532 [0 ffffffff 21 800] ------- [8:1 9:1 28 0] [2] 3 2
r 23.195958213 _9_ AGT  --- 50 cbr 532 [0 ffffffff 17 800] ------- [8:1 9:1 28 0] [2] 3 2
r 23.200869264 _9_ AGT  --- 50 cbr 532 [0 ffffffff 2d 800] ------- [8:1 9:1 28 0] [2] 3 2
r 23.212475274 _9_ AGT  --- 50 cbr 532 [0 ffffffff 29 800] ------- [8:1 9:1 27 0] [2] 4 2
r 23.220775322 _9_ AGT  --- 50 cbr 532 [0 ffffffff 25 800] ------- [8:1 9:1 27 0] [2] 4 2
r 23.265654315 _9_ AGT  --- 50 cbr 532 [0 ffffffff 2a 800] ------- [8:1 9:1 29 0] [2] 2 2
r 23.483808736 _9_ AGT  --- 51 cbr 532 [0 ffffffff 10 800] ------- [7:2 9:0 26 0] [14] 5 5
r 23.488578749 _9_ AGT  --- 51 cbr 532 [0 ffffffff 17 800] ------- [7:2 9:0 26 0] [14] 5 5
r 23.493529202 _9_ AGT  --- 51 cbr 532 [0 ffffffff 2a 800] ------- [7:2 9:0 26 0] [14] 5 5
r 23.498719254 _9_ AGT  --- 51 cbr 532 [0 ffffffff 21 800] ------- [7:2 9:0 26 0] [14] 5 5
r 23.503609906 _9_ AGT  --- 51 cbr 532 [0 ffffffff 25 800] ------- [7:2 9:0 25 0] [14] 6 5
r 23.518485339 _9_ AGT  --- 51 cbr 532 [0 ffffffff 1e 800] ------- [7:2 9:0 25 0] [14] 6 5
r 23.523555406 _9_ AGT  --- 51 cbr 532 [0 ffffffff 29 800] ------- [7:2 9:0 25 0] [14] 6 5
r 23.679918121 _19_ AGT  --- 52 cbr 532 [0 ffffffff 11 800] ------- [17:3 19:0 30 0] [4] 1 1
r 23.691199494 _19_ AGT  --- 52 cbr 532 [0 ffffffff 19 800] ------- [17:3 19:0 29 0] [4] 2 1
r 23.696009992 _19_ AGT  --- 52 cbr 532 [0 ffffffff 12 800] ------- [17:3 19:0 29 0] [4] 2 1
r 23.701014568 _19_ AGT  --- 52 cbr 532 [0 ffffffff d 800] ------- [17:3 19:0 29 0] [4] 2 1
r 23.715466080 _19_ AGT  --- 52 cbr 532 [0 ffffffff 30 800] ------- [17:3 19:0 29 0] [4] 2 1
r 23.725917162 _19_ AGT  --- 52 cbr 532 [0 ffffffff 24 800] ------- [17:3 19:0 28 0] [4] 3 1
r 23.740813030 _19_ AGT  --- 52 cbr 532 [0 ffffffff 2e 800] ------- [17:3 19:0 28 0] [4] 3 1
r 23.745943199 _19_ AGT  --- 52 cbr 532 [0 ffffffff 3 800] ------- [17:3 19:0 28 0] [4] 3 1
r 23.829980476 _19_ AGT  --- 52 cbr 532 [0 ffffffff 8 800] ------- [17:3 19:0 29 0] [4] 2 1
r 23.859823058 _2_ AGT  --- 53 cbr 532 [0 ffffffff 25 800] ------- [1:0 2:0 26 0] [22] 5 5
r 23.879849829 _2_ AGT  --- 53 cbr 532 [0 ffffffff 18 800] ------- [1:0 2:0 26 0] [22] 5 5
r 23.913449862 _2_ AGT  --- 53 cbr 532 [0 ffffffff 2d 800] ------- [1:0 2:0 26 0] [22] 5 5
r 23.928101204 _2_ AGT  --- 53 cbr 532 [0 ffffffff f 800] ------- [1:0 2:0 25 0] [22] 6 5
r 24.054880566 _37_ AGT  --- 54 cbr 532 [0 ffffffff 10 800] ------- [36:1 37:0 25 0] [8] 6 4
r 24.059790802 _37_ AGT  --- 54 cbr 532 [0 ffffffff 17 800] ------- [36:1 37:0 25 0] [8] 6 4
r 24.064621568 _37_ AGT  --- 54 cbr 532 [0 ffffffff 2d 800] ------- [36:1 37:0 24 0] [8] 7 4
r 24.069452008 _37_ AGT  --- 54 cbr 532 [0 ffffffff 2a 800] ------- [36:1 37:0 25 0] [8] 6 4
r 24.074382443 _37_ AGT  --- 54 cbr 532 [0 ffffffff 9 800] ------- [36:1 37:0 24 0] [8] 7 4
r 24.079273315 _37_ AGT  --- 54 cbr 532 [0 ffffffff 21 800] ------- [36:1 37:0 25 0] [8] 6 4
r 24.095253193 _37_ AGT  --- 54 cbr 532 [0 ffffffff 2c 800] ------- [36:1 37:0 23 0] [8] 8 4
r 24.401018375 _9_ AGT  --- 56 cbr 532 [0 ffffffff 25 800] ------- [8:1 9:1 26 0] [3] 5 2
r 24.435736695 _9_ AGT  --- 56 cbr 532 [0 ffffffff 10 800] ------- [8:1 9:1 29 0] [3] 2 2
r 24.440546760 _9_ AGT  --- 56 cbr 532 [0 ffffffff 17 800] ------- [8:1 9:1 28 0] [3] 3 2
r 24.445437293 _9_ AGT  --- 56 cbr 532 [0 ffffffff 21 800] ------- [8:1 9:1 29 0] [3] 2 2
r 24.450227367 _9_ AGT  --- 56 cbr 532 [0 ffffffff 2a 800] ------- [8:1 9:1 28 0] [3] 3 2
r 24.461079097 _9_ AGT  --- 56 cbr 532 [0 ffffffff 1e 800] ------- [8:1 9:1 22 0] [3] 9 2