s 2.556838879 _1_ AGT  --- 0 cbr 512 [0 0 0 0] ------- [1:0 2:0 32 0] [0] 0 6
s 3.057178456 _1_ AGT  --- 1 cbr 512 [0 0 0 0] ------- [1:0 2:0 32 0] [1] 0 6
s 3.964657541 _1_ AGT  --- 2 cbr 512 [0 0 0 0] ------- [1:0 2:0 32 0] [2] 0 6
s 5.320559802 _1_ AGT  --- 3 cbr 512 [0 0 0 0] ------- [1:0 2:0 32 0] [3] 0 6
s 6.808992369 _1_ AGT  --- 4 cbr 512 [0 0 0 0] ------- [1:0 2:0 32 0] [4] 0 6
s 7.703020315 _7_ AGT  --- 5 cbr 512 [0 0 0 0] ------- [7:2 9:0 32 0] [0] 0 4
s 8.202596513 _1_ AGT  --- 6 cbr 512 [0 0 0 0] ------- [1:0 2:0 32 0] [5] 0 6
s 9.037502886 _7_ AGT  --- 7 cbr 512 [0 0 0 0] ------- [7:2 9:0 32 0] [1] 0 3
s 9.544395081 _1_ AGT  --- 8 cbr 512 [0 0 0 0] ------- [1:0 2:0 32 0] [6] 0 6
s 10.250521355 _7_ AGT  --- 9 cbr 512 [0 0 0 0] ------- [7:2 9:0 32 0] [2] 0 3
s 10.724194910 _1_ AGT  --- 10 cbr 512 [0 0 0 0] ------- [1:0 2:0 32 0] [7] 0 6
s 11.021943936 _7_ AGT  --- 11 cbr 512 [0 0 0 0] ------- [7:2 9:0 32 0] [3] 0 3
s 11.531869399 _7_ AGT  --- 12 cbr 512 [0 0 0 0] ------- [7:2 9:0 32 0] [4] 0 4
s 11.777384275 _1_ AGT  --- 13 cbr 512 [0 0 0 0] ------- [1:0 2:0 32 0] [8] 0 5
s 12.362662648 _7_ AGT  --- 14 cbr 512 [0 0 0 0] ------- [7:2 9:0 32 0] [5] 0 4
s 12.575704379 _1_ AGT  --- 15 cbr 512 [0 0 0 0] ------- [1:0 2:0 32 0] [9] 0 5
s 13.438176201 _7_ AGT  --- 16 cbr 512 [0 0 0 0] ------- [7:2 9:0 32 0] [6] 0 4
s 13.527870711 _1_ AGT  --- 17 cbr 512 [0 0 0 0] ------- [1:0 2:0 32 0] [10] 0 6
s 14.273844246 _1_ AGT  --- 18 cbr 512 [0 0 0 0] ------- [1:0 2:0 32 0] [11] 0 5
s 14.685945086 _7_ AGT  --- 19 cbr 512 [0 0 0 0] ------- [7:2 9:0 32 0] [7] 0 4
s 15.131593760 _1_ AGT  --- 20 cbr 512 [0 0 0 0] ------- [1:0 2:0 32 0] [12] 0 5
s 15.626828988 _7_ AGT  --- 21 cbr 512 [0 0 0 0] ------- [7:2 9:0 32 0] [8] 0 4
s 16.104318137 _1_ AGT  --- 22 cbr 512 [0 0 0 0] ------- [1:0 2:0 32 0] [13] 0 5
s 16.444244867 _36_ AGT  --- 23 cbr 512 [0 0 0 0] ------- [36:1 37:0 32 0] [0] 0 5
s 16.642691106 _1_ AGT  --- 24 cbr 512 [0 0 0 0] ------- [1:0 2:0 32 0] [14] 0 5
s 16.777164371 _7_ AGT  --- 25 cbr 512 [0 0 0 0] ------- [7:2 9:0 32 0] [9] 0 4
s 17.836955719 _1_ AGT  --- 26 cbr 512 [0 0 0 0] ------- [1:0 2:0 32 0] [15] 0 5
s 17.933068275 _36_ AGT  --- 27 cbr 512 [0 0 0 0] ------- [36:1 37:0 32 0] [1] 0 5
s 18.264946042 _7_ AGT  --- 28 cbr 512 [0 0 0 0] ------- [7:2 9:0 32 0] [10] 0 4
s 18.631203263 _36_ AGT  --- 29 cbr 512 [0 0 0 0] ------- [36:1 37:0 32 0] [2] 0 5
s 18.732339793 _1_ AGT  --- 30 cbr 512 [0 0 0 0] ------- [1:0 2:0 32 0] [16] 0 5
s 19.236167957 _1_ AGT  --- 31 cbr 512 [0 0 0 0] ------- [1:0 2:0 32 0] [17] 0 5
s 19.326868741 _36_ AGT  --- 32 cbr 512 [0 0 0 0] ------- [36:1 37:0 32 0] [3] 0 5
s 19.655724885 _17_ AGT  --- 33 cbr 512 [0 0 0 0] ------- [17:3 19:0 32 0] [0] 0 2
s 19.714437834 _7_ AGT  --- 34 cbr 512 [0 0 0 0] ------- [7:2 9:0 32 0] [11] 0 4
s 19.938543253 _36_ AGT  --- 35 cbr 512 [0 0 0 0] ------- [36:1 37:0 32 0] [4] 0 4
s 20.006552406 _1_ AGT  --- 36 cbr 512 [0 0 0 0] ------- [1:0 2:0 32 0] [18] 0 5
s 20.485484684 _8_ AGT  --- 37 cbr 512 [0 0 0 0] ------- [8:1 9:1 32 0] [0] 0 2
s 20.537917298 _17_ AGT  --- 38 cbr 512 [0 0 0 0] ------- [17:3 19:0 32 0] [1] 0 2
s 20.628920017 _36_ AGT  --- 39 cbr 512 [0 0 0 0] ------- [36:1 37:0 32 0] [5] 0 4
s 20.652516207 _1_ AGT  --- 40 cbr 512 [0 0 0 0] ------- [1:0 2:0 32 0] [19] 0 5
s 21.059516751 _17_ AGT  --- 41 cbr 512 [0 0 0 0] ------- [17:3 19:0 32 0] [2] 0 2
s 21.103505408 _7_ AGT  --- 42 cbr 512 [0 0 0 0] ------- [7:2 9:0 32 0] [12] 0 4
s 21.479924254 _36_ AGT  --- 43 cbr 512 [0 0 0 0] ------- [36:1 37:0 32 0] [6] 0 4
s 21.637438760 _1_ AGT  --- 44 cbr 512 [0 0 0 0] ------- [1:0 2:0 32 0] [20] 0 5
s 21.847966309 _8_ AGT  --- 45 cbr 512 [0 0 0 0] ------- [8:1 9:1 32 0] [1] 0 2
s 22.250607187 _17_ AGT  --- 46 cbr 512 [0 0 0 0] ------- [17:3 19:0 32 0] [3] 0 1
s 22.347972843 _7_ AGT  --- 47 cbr 512 [0 0 0 0] ------- [7:2 9:0 32 0] [13] 0 5
s 22.496265195 _1_ AGT  --- 48 cbr 512 [0 0 0 0] ------- [1:0 2:0 32 0] [21] 0 5
s 22.799091110 _36_ AGT  --- 49 cbr 512 [0 0 0 0] ------- [36:1 37:0 32 0] [7] 0 4
s 23.169768487 _8_ AGT  --- 50 cbr 512 [0 0 0 0] ------- [8:1 9:1 32 0] [2] 0 2
s 23.371679575 _7_ AGT  --- 51 cbr 512 [0 0 0 0] ------- [7:2 9:0 32 0] [14] 0 5
s 23.675077573 _17_ AGT  --- 52 cbr 512 [0 0 0 0] ------- [17:3 19:0 32 0] [4] 0 1
s 23.751017103 _1_ AGT  --- 53 cbr 512 [0 0 0 0] ------- [1:0 2:0 32 0] [22] 0 5
s 23.884670534 _36_ AGT  --- 54 cbr 512 [0 0 0 0] ------- [36:1 37:0 32 0] [8] 0 4
s 23.990268180 _7_ AGT  --- 55 cbr 512 [0 0 0 0] ------- [7:2 9:0 32 0] [15] 0 5
s 24.323340580 _8_ AGT  --- 56 cbr 512 [0 0 0 0] ------- [8:1 9:1 32 0] [3] 0 2
s 24.508143539 _36_ AGT  --- 57 cbr 512 [0 0 0 0] ------- [36:1 37:0 32 0] [9] 0 4
s 24.537873566 _1_ AGT  --- 58 cbr 512 [0 0 0 0] ------- [1:0 2:0 32 0] [23] 0 5
s 24.633843771 _17_ AGT  --- 59 cbr 512 [0 0 0 0] ------- [17:3 19:0 32 0] [5] 0 1
s 24.721862946 _7_ AGT  --- 60 cbr 512 [0 0 0 0] ------- [7:2 9:0 32 0] [16] 0 5
s 24.880019406 _8_ AGT  --- 61 cbr 512 [0 0 0 0] ------- [8:1 9:1 32 0] [4] 0 2
s 25.076899478 _1_ AGT  --- 62 cbr 512 [0 0 0 0] ------- [1:0 2:0 32 0] [24] 0 5
s 25.161407290 _17_ AGT  --- 63 cbr 512 [0 0 0 0] ------- [17:3 19:0 32 0] [6] 0 1
s 25.328591962 _7_ AGT  --- 64 cbr 512 [0 0 0 0] ------- [7:2 9:0 32 0] [17] 0 5
s 25.646922451 _36_ AGT  --- 65 cbr 512 [0 0 0 0] ------- [36:1 37:0 32 0] [10] 0 4
s 25.665951285 _8_ AGT  --- 66 cbr 512 [0 0 0 0] ------- [8:1 9:1 32 0] [5] 0 2
s 25.868565572 _17_ AGT  --- 67 cbr 512 [0 0 0 0] ------- [17:3 19:0 32 0] [7] 0 1
s 25.970399902 _7_ AGT  --- 68 cbr 512 [0 0 0 0] ------- [7:2 9:0 32 0] [18] 0 5
s 26.220737897 _8_ AGT  --- 69 cbr 512 [0 0 0 0] ------- [8:1 9:1 32 0] [6] 0 3
s 26.285229327 _1_ AGT  --- 70 cbr 512 [0 0 0 0] ------- [1:0 2:0 32 0] [25] 0 5
s 26.711200262 _17_ AGT  --- 71 cbr 512 [0 0 0 0] ------- [17:3 19:0 32 0] [8] 0 1
s 26.793017388 _1_ AGT  --- 72 cbr 512 [0 0 0 0] ------- [1:0 2:0 32 0] [26] 0 5
s 26.816463188 _8_ AGT  --- 73 cbr 512 [0 0 0 0] ------- [8:1 9:1 32 0] [7] 0 3
s 27.123836285 _36_ AGT  --- 74 cbr 512 [0 0 0 0] ------- [36:1 37:0 32 0] [11] 0 4
s 27.286107359 _17_ AGT  --- 75 cbr 512 [0 0 0 0] ------- [17:3 19:0 32 0] [9] 0 1
s 27.426427053 _8_ AGT  --- 76 cbr 512 [0 0 0 0] ------- [8:1 9:1 32 0] [8] 0 3
s 27.461234668 _7_ AGT  --- 77 cbr 512 [0 0 0 0] ------- [7:2 9:0 32 0] [19] 0 6
s 27.807353606 _1_ AGT  --- 78 cbr 512 [0 0 0 0] ------- [1:0 2:0 32 0] [27] 0 5
s 28.022169956 _36_ AGT  --- 79 cbr 512 [0 0 0 0] ------- [36:1 37:0 32 0] [12] 0 4
s 28.111669868 _17_ AGT  --- 80 cbr 512 [0 0 0 0] ------- [17:3 19:0 32 0] [10] 0 1
s 28.391189851 _1_ AGT  --- 81 cbr 512 [0 0 0 0] ------- [1:0 2:0 32 0] [28] 0 5
s 28.546836557 _7_ AGT  --- 82 cbr 512 [0 0 0 0] ------- [7:2 9:0 32 0] [20] 0 6
s 28.756471938 _17_ AGT  --- 83 cbr 512 [0 0 0 0] ------- [17:3 19:0 32 0] [11] 0 1
s 28.896020115 _8_ AGT  --- 84 cbr 512 [0 0 0 0] ------- [8:1 9:1 32 0] [9] 0 3
s 29.038878285 _1_ AGT  --- 85 cbr 512 [0 0 0 0] ------- [1:0 2:0 32 0] [29] 0 5
s 29.378023085 _36_ AGT  --- 86 cbr 512 [0 0 0 0] ------- [36:1 37:0 32 0] [13] 0 5
s 29.482072741 _17_ AGT  --- 87 cbr 512 [0 0 0 0] ------- [17:3 19:0 32 0] [12] 0 2
s 29.546173154 _7_ AGT  --- 88 cbr 512 [0 0 0 0] ------- [7:1 8:0 32 0] [0] 0 3
s 29.580450841 _7_ AGT  --- 89 cbr 512 [0 0 0 0] ------- [7:2 9:0 32 0] [21] 0 6
s 30.112473757 _7_ AGT  --- 90 cbr 512 [0 0 0 0] ------- [7:2 9:0 32 0] [22] 0 6
s 30.215146796 _8_ AGT  --- 91 cbr 512 [0 0 0 0] ------- [8:1 9:1 32 0] [10] 0 3
s 30.354924946 _1_ AGT  --- 92 cbr 512 [0 0 0 0] ------- [1:0 2:0 32 0] [30] 0 5
s 30.387795647 _7_ AGT  --- 93 cbr 512 [0 0 0 0] ------- [7:1 8:0 32 0] [1] 0 3
s 30.774845891 _17_ AGT  --- 94 cbr 512 [0 0 0 0] ------- [17:3 19:0 32 0] [13] 0 2
s 30.806600955 _36_ AGT  --- 95 cbr 512 [0 0 0 0] ------- [36:1 37:0 32 0] [14] 0 5
s 30.987895521 _8_ AGT  --- 96 cbr 512 [0 0 0 0] ------- [8:1 9:1 32 0] [11] 0 3
s 31.169432966 _7_ AGT  --- 97 cbr 512 [0 0 0 0] ------- [7:1 8:0 32 0] [2] 0 3
s 31.217422858 _1_ AGT  --- 98 cbr 512 [0 0 0 0] ------- [1:0 2:0 32 0] [31] 0 5
s 31.329061761 _36_ AGT  --- 99 cbr 512 [0 0 0 0] ------- [36:1 37:0 32 0] [15] 0 5
s 31.464945689 _9_ AGT  --- 100 cbr 512 [0 0 0 0] ------- [9:3 11:0 32 0] [0] 0 3
s 31.519060582 _7_ AGT  --- 101 cbr 512 [0 0 0 0] ------- [7:2 9:0 32 0] [23] 0 6
s 31.541036056 _17_ AGT  --- 102 cbr 512 [0 0 0 0] ------- [17:3 19:0 32 0] [14] 0 2
s 31.749613412 _1_ AGT  --- 103 cbr 512 [0 0 0 0] ------- [1:0 2:0 32 0] [32] 0 5
s 31.938635756 _8_ AGT  --- 104 cbr 512 [0 0 0 0] ------- [8:1 9:1 32 0] [12] 0 3
s 32.024567895 _36_ AGT  --- 105 cbr 512 [0 0 0 0] ------- [36:1 37:0 32 0] [16] 0 5
s 32.136597965 _17_ AGT  --- 106 cbr 512 [0 0 0 0] ------- [17:3 19:0 32 0] [15] 0 2
s 32.171012988 _35_ AGT  --- 107 cbr 512 [0 0 0 0] ------- [35:1 36:0 32 0] [0] 0 1
s 32.217572661 _7_ AGT  --- 108 cbr 512 [0 0 0 0] ------- [7:1 8:0 32 0] [3] 0 3
s 32.642251594 _7_ AGT  --- 109 cbr 512 [0 0 0 0] ------- [7:2 9:0 32 0] [24] 0 6
s 32.710619470 _17_ AGT  --- 110 cbr 512 [0 0 0 0] ------- [17:3 19:0 32 0] [16] 0 2
s 32.719323148 _9_ AGT  --- 111 cbr 512 [0 0 0 0] ------- [9:3 11:0 32 0] [1] 0 2
s 33.037768895 _8_ AGT  --- 112 cbr 512 [0 0 0 0] ------- [8:1 9:1 32 0] [13] 0 3
s 33.038263464 _1_ AGT  --- 113 cbr 512 [0 0 0 0] ------- [1:0 2:0 32 0] [33] 0 5
s 33.203202823 _35_ AGT  --- 114 cbr 512 [0 0 0 0] ------- [35:1 36:0 32 0] [1] 0 1
s 33.237064835 _7_ AGT  --- 115 cbr 512 [0 0 0 0] ------- [7:2 9:0 32 0] [25] 0 6
s 33.340142544 _36_ AGT  --- 116 cbr 512 [0 0 0 0] ------- [36:1 37:0 32 0] [17] 0 5
s 33.638873924 _7_ AGT  --- 117 cbr 512 [0 0 0 0] ------- [7:1 8:0 32 0] [4] 0 3
s 33.670903307 _17_ AGT  --- 118 cbr 512 [0 0 0 0] ------- [17:3 19:0 32 0] [17] 0 2
s 33.793413412 _7_ AGT  --- 119 cbr 512 [0 0 0 0] ------- [7:2 9:0 32 0] [26] 0 6
s 33.833670416 _8_ AGT  --- 120 cbr 512 [0 0 0 0] ------- [8:1 9:1 32 0] [14] 0 3
s 33.915410298 _35_ AGT  --- 121 cbr 512 [0 0 0 0] ------- [35:1 36:0 32 0] [2] 0 1
s 34.002393267 _9_ AGT  --- 122 cbr 512 [0 0 0 0] ------- [9:3 11:0 32 0] [2] 0 3
s 34.328441196 _36_ AGT  --- 123 cbr 512 [0 0 0 0] ------- [36:1 37:0 32 0] [18] 0 5
s 34.330187489 _1_ AGT  --- 124 cbr 512 [0 0 0 0] ------- [1:0 2:0 32 0] [34] 0 5
s 34.575125399 _9_ AGT  --- 125 cbr 512 [0 0 0 0] ------- [9:3 11:0 32 0] [3] 0 3
s 34.626316901 _17_ AGT  --- 126 cbr 512 [0 0 0 0] ------- [17:3 19:0 32 0] [18] 0 2
s 34.668482169 _8_ AGT  --- 127 cbr 512 [0 0 0 0] ------- [8:1 9:1 32 0] [15] 0 3
s 34.784777696 _7_ AGT  --- 128 cbr 512 [0 0 0 0] ------- [7:1 8:0 32 0] [5] 0 3
s 35.081938757 _35_ AGT  --- 129 cbr 512 [0 0 0 0] ------- [35:1 36:0 32 0] [3] 0 1
s 35.092171415 _7_ AGT  --- 130 cbr 512 [0 0 0 0] ------- [7:2 9:0 32 0] [27] 0 6
s 35.193485366 _17_ AGT  --- 131 cbr 512 [0 0 0 0] ------- [17:3 19:0 32 0] [19] 0 3
s 35.446855676 _7_ AGT  --- 132 cbr 512 [0 0 0 0] ------- [7:1 8:0 32 0] [6] 0 3
s 35.491377555 _1_ AGT  --- 133 cbr 512 [0 0 0 0] ------- [1:0 2:0 32 0] [35] 0 5
s 35.518097408 _36_ AGT  --- 134 cbr 512 [0 0 0 0] ------- [36:1 37:0 32 0] [19] 0 5
s 35.774165011 _9_ AGT  --- 135 cbr 512 [0 0 0 0] ------- [9:3 11:0 32 0] [4] 0 3
s 35.870530060 _8_ AGT  --- 136 cbr 512 [0 0 0 0] ------- [8:1 9:1 32 0] [16] 0 3
s 35.893527989 _17_ AGT  --- 137 cbr 512 [0 0 0 0] ------- [17:3 19:0 32 0] [20] 0 3
s 36.127948606 _7_ AGT  --- 138 cbr 512 [0 0 0 0] ------- [7:2 9:0 32 0] [28] 0 6
s 36.267866843 _1_ AGT  --- 139 cbr 512 [0 0 0 0] ------- [1:0 2:0 32 0] [36] 0 5
s 36.361694175 _35_ AGT  --- 140 cbr 512 [0 0 0 0] ------- [35:1 36:0 32 0] [4] 0 1
s 36.525523780 _8_ AGT  --- 141 cbr 512 [0 0 0 0] ------- [8:1 9:1 32 0] [17] 0 3
s 36.640616425 _36_ AGT  --- 142 cbr 512 [0 0 0 0] ------- [36:1 37:0 32 0] [20] 0 16777215
s 36.671251675 _7_ AGT  --- 143 cbr 512 [0 0 0 0] ------- [7:1 8:0 32 0] [7] 0 16777215
s 36.808175504 _1_ AGT  --- 144 cbr 512 [0 0 0 0] ------- [1:0 2:0 32 0] [37] 0 5
s 37.017289418 _9_ AGT  --- 145 cbr 512 [0 0 0 0] ------- [9:3 11:0 32 0] [5] 0 3
s 37.076167120 _17_ AGT  --- 146 cbr 512 [0 0 0 0] ------- [17:3 19:0 32 0] [21] 0 3
s 37.146789670 _35_ AGT  --- 147 cbr 512 [0 0 0 0] ------- [35:1 36:0 32 0] [5] 0 1
s 37.249341927 _7_ AGT  --- 148 cbr 512 [0 0 0 0] ------- [7:1 8:0 32 0] [8] 0 16777215
s 37.421671591 _7_ AGT  --- 149 cbr 512 [0 0 0 0] ------- [7:2 9:0 32 0] [29] 0 16777215
s 37.525354221 _8_ AGT  --- 150 cbr 512 [0 0 0 0] ------- [8:1 9:1 32 0] [18] 0 3
s 37.662694469 _36_ AGT  --- 151 cbr 512 [0 0 0 0] ------- [36:1 37:0 32 0] [21] 0 16777215
s 37.876213810 _7_ AGT  --- 152 cbr 512 [0 0 0 0] ------- [7:1 8:0 32 0] [9] 0 16777215
s 37.896273490 _1_ AGT  --- 153 cbr 512 [0 0 0 0] ------- [1:0 2:0 32 0] [38] 0 5
s 37.993611174 _17_ AGT  --- 154 cbr 512 [0 0 0 0] ------- [17:3 19:0 32 0] [22] 0 4
s 38.225118958 _36_ AGT  --- 155 cbr 512 [0 0 0 0] ------- [36:1 37:0 32 0] [22] 0 16777215
s 38.252727208 _35_ AGT  --- 156 cbr 512 [0 0 0 0] ------- [35:1 36:0 32 0] [6] 0 1
s 38.462638696 _9_ AGT  --- 157 cbr 512 [0 0 0 0] ------- [9:3 11:0 32 0] [6] 0 3
s 38.503265603 _7_ AGT  --- 158 cbr 512 [0 0 0 0] ------- [7:1 8:0 32 0] [10] 0 5
s 38.781223982 _8_ AGT  --- 159 cbr 512 [0 0 0 0] ------- [8:1 9:1 32 0] [19] 0 3
s 38.862989755 _1_ AGT  --- 160 cbr 512 [0 0 0 0] ------- [1:0 2:0 32 0] [39] 0 5
s 38.893516399 _7_ AGT  --- 161 cbr 512 [0 0 0 0] ------- [7:2 9:0 32 0] [30] 0 7
s 39.068210385 _36_ AGT  --- 162 cbr 512 [0 0 0 0] ------- [36:1 37:0 32 0] [23] 0 8
s 39.088702704 _15_ AGT  --- 163 cbr 512 [0 0 0 0] ------- [15:1 16:0 32 0] [0] 0 2
s 39.179166605 _17_ AGT  --- 164 cbr 512 [0 0 0 0] ------- [17:3 19:0 32 0] [23] 0 4
s 39.326109445 _35_ AGT  --- 165 cbr 512 [0 0 0 0] ------- [35:1 36:0 32 0] [7] 0 1
s 39.770946556 _9_ AGT  --- 166 cbr 512 [0 0 0 0] ------- [9:3 11:0 32 0] [7] 0 3
s 39.791523772 _7_ AGT  --- 167 cbr 512 [0 0 0 0] ------- [7:1 8:0 32 0] [11] 0 5
s 39.831292864 _35_ AGT  --- 168 cbr 512 [0 0 0 0] ------- [35:1 36:0 32 0] [8] 0 1
s 39.878993033 _7_ AGT  --- 169 cbr 512 [0 0 0 0] ------- [7:2 9:0 32 0] [31] 0 7
s 40.059960826 _36_ AGT  --- 170 cbr 512 [0 0 0 0] ------- [36:1 37:0 32 0] [24] 0 9
s 40.128500803 _8_ AGT  --- 171 cbr 512 [0 0 0 0] ------- [8:1 9:1 32 0] [20] 0 3
s 40.185310432 _17_ AGT  --- 172 cbr 512 [0 0 0 0] ------- [17:3 19:0 32 0] [24] 0 4
s 40.216660906 _1_ AGT  --- 173 cbr 512 [0 0 0 0] ------- [1:0 2:0 32 0] [40] 0 5
s 40.405217501 _9_ AGT  --- 174 cbr 512 [0 0 0 0] ------- [9:3 11:0 32 0] [8] 0 3
s 40.465497117 _15_ AGT  --- 175 cbr 512 [0 0 0 0] ------- [15:1 16:0 32 0] [1] 0 2
s 40.606794611 _36_ AGT  --- 176 cbr 512 [0 0 0 0] ------- [36:1 37:0 32 0] [25] 0 8
s 40.868177318 _7_ AGT  --- 177 cbr 512 [0 0 0 0] ------- [7:2 9:0 32 0] [32] 0 7
s 40.905234630 _35_ AGT  --- 178 cbr 512 [0 0 0 0] ------- [35:1 36:0 32 0] [9] 0 1
s 41.043549522 _7_ AGT  --- 179 cbr 512 [0 0 0 0] ------- [7:1 8:0 32 0] [12] 0 5
s 41.147184190 _17_ AGT  --- 180 cbr 512 [0 0 0 0] ------- [17:3 19:0 32 0] [25] 0 4
s 41.158762302 _1_ AGT  --- 181 cbr 512 [0 0 0 0] ------- [1:0 2:0 32 0] [41] 0 5
s 41.382098122 _8_ AGT  --- 182 cbr 512 [0 0 0 0] ------- [8:1 9:1 32 0] [21] 0 3
s 41.417496559 _9_ AGT  --- 183 cbr 512 [0 0 0 0] ------- [9:3 11:0 32 0] [9] 0 3
s 41.693969739 _7_ AGT  --- 184 cbr 512 [0 0 0 0] ------- [7:1 8:0 32 0] [13] 0 4
s 41.703672579 _15_ AGT  --- 185 cbr 512 [0 0 0 0] ------- [15:1 16:0 32 0] [2] 0 2
s 41.729472665 _1_ AGT  --- 186 cbr 512 [0 0 0 0] ------- [1:0 2:0 32 0] [42] 0 5
s 41.910138805 _7_ AGT  --- 187 cbr 512 [0 0 0 0] ------- [7:2 9:0 32 0] [33] 0 6
s 42.090470451 _36_ AGT  --- 188 cbr 512 [0 0 0 0] ------- [36:1 37:0 32 0] [26] 0 4
s 42.114630760 _17_ AGT  --- 189 cbr 512 [0 0 0 0] ------- [17:3 19:0 32 0] [26] 0 4
s 42.186685124 _35_ AGT  --- 190 cbr 512 [0 0 0 0] ------- [35:1 36:0 32 0] [10] 0 1
s 42.213141057 _15_ AGT  --- 191 cbr 512 [0 0 0 0] ------- [15:1 16:0 32 0] [3] 0 2
s 42.404150418 _9_ AGT  --- 192 cbr 512 [0 0 0 0] ------- [9:3 11:0 32 0] [10] 0 3
s 42.467411729 _1_ AGT  --- 193 cbr 512 [0 0 0 0] ------- [1:0 2:0 32 0] [43] 0 4
s 42.619755507 _17_ AGT  --- 194 cbr 512 [0 0 0 0] ------- [17:3 19:0 32 0] [27] 0 4
s 42.754454632 _7_ AGT  --- 195 cbr 512 [0 0 0 0] ------- [7:2 9:0 32 0] [34] 0 6
s 42.815913707 _8_ AGT  --- 196 cbr 512 [0 0 0 0] ------- [8:1 9:1 32 0] [22] 0 2
s 43.129450593 _36_ AGT  --- 197 cbr 512 [0 0 0 0] ------- [36:1 37:0 32 0] [27] 0 4
s 43.185105963 _7_ AGT  --- 198 cbr 512 [0 0 0 0] ------- [7:1 8:0 32 0] [14] 0 5
s 43.361943203 _15_ AGT  --- 199 cbr 512 [0 0 0 0] ------- [15:1 16:0 32 0] [4] 0 2
s 43.413929985 _9_ AGT  --- 200 cbr 512 [0 0 0 0] ------- [9:3 11:0 32 0] [11] 0 3
s 43.420613009 _15_ AGT  --- 201 cbr 512 [0 0 0 0] ------- [15:2 17:0 32 0] [0] 0 4
s 43.606300360 _17_ AGT  --- 202 cbr 512 [0 0 0 0] ------- [17:3 19:0 32 0] [28] 0 5
s 43.615705236 _7_ AGT  --- 203 cbr 512 [0 0 0 0] ------- [7:2 9:0 32 0] [35] 0 6
s 43.668720862 _35_ AGT  --- 204 cbr 512 [0 0 0 0] ------- [35:1 36:0 32 0] [11] 0 1
s 43.850860546 _36_ AGT  --- 205 cbr 512 [0 0 0 0] ------- [36:1 37:0 32 0] [28] 0 3
s 43.955144945 _1_ AGT  --- 206 cbr 512 [0 0 0 0] ------- [1:0 2:0 32 0] [44] 0 4
s 44.139726512 _8_ AGT  --- 207 cbr 512 [0 0 0 0] ------- [8:1 9:1 32 0] [23] 0 2
s 44.204767652 _17_ AGT  --- 208 cbr 512 [0 0 0 0] ------- [17:3 19:0 32 0] [29] 0 5
s 44.224724174 _15_ AGT  --- 209 cbr 512 [0 0 0 0] ------- [15:1 16:0 32 0] [5] 0 2
s 44.498121845 _15_ AGT  --- 210 cbr 512 [0 0 0 0] ------- [15:2 17:0 32 0] [1] 0 4
s 44.579499952 _7_ AGT  --- 211 cbr 512 [0 0 0 0] ------- [7:1 8:0 32 0] [15] 0 5
s 44.696291308 _1_ AGT  --- 212 cbr 512 [0 0 0 0] ------- [1:0 2:0 32 0] [45] 0 5
s 44.801809853 _7_ AGT  --- 213 cbr 512 [0 0 0 0] ------- [7:2 9:0 32 0] [36] 0 5
s 44.890985900 _9_ AGT  --- 214 cbr 512 [0 0 0 0] ------- [9:3 11:0 32 0] [12] 0 3
s 44.953449688 _36_ AGT  --- 215 cbr 512 [0 0 0 0] ------- [36:1 37:0 32 0] [29] 0 3
s 44.993032734 _17_ AGT  --- 216 cbr 512 [0 0 0 0] ------- [17:3 19:0 32 0] [30] 0 5
s 45.162941392 _35_ AGT  --- 217 cbr 512 [0 0 0 0] ------- [35:1 36:0 32 0] [12] 0 1
s 45.409518840 _1_ AGT  --- 218 cbr 512 [0 0 0 0] ------- [1:0 2:0 32 0] [46] 0 5
s 45.459525127 _36_ AGT  --- 219 cbr 512 [0 0 0 0] ------- [36:1 37:0 32 0] [30] 0 3
s 45.475322638 _15_ AGT  --- 220 cbr 512 [0 0 0 0] ------- [15:2 17:0 32 0] [2] 0 4
s 45.489238838 _9_ AGT  --- 221 cbr 512 [0 0 0 0] ------- [9:3 11:0 32 0] [13] 0 3
s 45.494798989 _8_ AGT  --- 222 cbr 512 [0 0 0 0] ------- [8:1 9:1 32 0] [24] 0 2
s 45.517325907 _7_ AGT  --- 223 cbr 512 [0 0 0 0] ------- [7:1 8:0 32 0] [16] 0 4
s 45.615139550 _15_ AGT  --- 224 cbr 512 [0 0 0 0] ------- [15:1 16:0 32 0] [6] 0 2
s 45.647714723 _17_ AGT  --- 225 cbr 512 [0 0 0 0] ------- [17:3 19:0 32 0] [31] 0 5
s 46.082918476 _15_ AGT  --- 226 cbr 512 [0 0 0 0] ------- [15:2 17:0 32 0] [3] 0 4
s 46.086391439 _35_ AGT  --- 227 cbr 512 [0 0 0 0] ------- [35:1 36:0 32 0] [13] 0 1
s 46.107619773 _7_ AGT  --- 228 cbr 512 [0 0 0 0] ------- [7:1 8:0 32 0] [17] 0 4
s 46.228021674 _7_ AGT  --- 229 cbr 512 [0 0 0 0] ------- [7:2 9:0 32 0] [37] 0 5
s 46.258873030 _26_ AGT  --- 230 cbr 512 [0 0 0 0] ------- [26:0 27:0 32 0] [0] 0 2
s 46.365836955 _9_ AGT  --- 231 cbr 512 [0 0 0 0] ------- [9:3 11:0 32 0] [14] 0 3
s 46.381900164 _1_ AGT  --- 232 cbr 512 [0 0 0 0] ------- [1:0 2:0 32 0] [47] 0 5
s 46.455830739 _11_ AGT  --- 233 cbr 512 [0 0 0 0] ------- [11:2 13:0 32 0] [0] 0 3
s 46.497013981 _17_ AGT  --- 234 cbr 512 [0 0 0 0] ------- [17:3 19:0 32 0] [32] 0 5
s 46.516736575 _15_ AGT  --- 235 cbr 512 [0 0 0 0] ------- [15:1 16:0 32 0] [7] 0 2
s 46.653725361 _35_ AGT  --- 236 cbr 512 [0 0 0 0] ------- [35:1 36:0 32 0] [14] 0 1
s 46.832394505 _36_ AGT  --- 237 cbr 512 [0 0 0 0] ------- [36:1 37:0 32 0] [31] 0 3
s 46.882691882 _8_ AGT  --- 238 cbr 512 [0 0 0 0] ------- [8:1 9:1 32 0] [25] 0 2
s 47.128346454 _28_ AGT  --- 239 cbr 512 [0 0 0 0] ------- [28:1 29:0 32 0] [0] 0 3
s 47.139333904 _15_ AGT  --- 240 cbr 512 [0 0 0 0] ------- [15:1 16:0 32 0] [8] 0 2
s 47.149856769 _26_ AGT  --- 241 cbr 512 [0 0 0 0] ------- [26:0 27:0 32 0] [1] 0 2
s 47.230634475 _9_ AGT  --- 242 cbr 512 [0 0 0 0] ------- [9:3 11:0 32 0] [15] 0 3
s 47.234494429 _7_ AGT  --- 243 cbr 512 [0 0 0 0] ------- [7:1 8:0 32 0] [18] 0 4
s 47.237765720 _15_ AGT  --- 244 cbr 512 [0 0 0 0] ------- [15:2 17:0 32 0] [4] 0 5
s 47.337042712 _11_ AGT  --- 245 cbr 512 [0 0 0 0] ------- [11:2 13:0 32 0] [1] 0 3
s 47.422346334 _17_ AGT  --- 246 cbr 512 [0 0 0 0] ------- [17:3 19:0 32 0] [33] 0 6
s 47.434203523 _7_ AGT  --- 247 cbr 512 [0 0 0 0] ------- [7:2 9:0 32 0] [38] 0 5
s 47.489755143 _8_ AGT  --- 248 cbr 512 [0 0 0 0] ------- [8:1 9:1 32 0] [26] 0 2
s 47.550151770 _1_ AGT  --- 249 cbr 512 [0 0 0 0] ------- [1:0 2:0 32 0] [48] 0 5
s 47.609474407 _35_ AGT  --- 250 cbr 512 [0 0 0 0] ------- [35:1 36:0 32 0] [15] 0 1
s 47.815970606 _9_ AGT  --- 251 cbr 512 [0 0 0 0] ------- [9:3 11:0 32 0] [16] 0 3
s 47.928819909 _15_ AGT  --- 252 cbr 512 [0 0 0 0] ------- [15:1 16:0 32 0] [9] 0 2
s 47.965614284 _11_ AGT  --- 253 cbr 512 [0 0 0 0] ------- [11:2 13:0 32 0] [2] 0 3
s 48.051918723 _26_ AGT  --- 254 cbr 512 [0 0 0 0] ------- [26:0 27:0 32 0] [2] 0 2
s 48.104139163 _7_ AGT  --- 255 cbr 512 [0 0 0 0] ------- [7:1 8:0 32 0] [19] 0 4
s 48.139831681 _36_ AGT  --- 256 cbr 512 [0 0 0 0] ------- [36:1 37:0 32 0] [32] 0 3
s 48.277867958 _17_ AGT  --- 257 cbr 512 [0 0 0 0] ------- [17:3 19:0 32 0] [34] 0 5
s 48.315651471 _7_ AGT  --- 258 cbr 512 [0 0 0 0] ------- [7:2 9:0 32 0] [39] 0 5
s 48.337946317 _15_ AGT  --- 259 cbr 512 [0 0 0 0] ------- [15:2 17:0 32 0] [5] 0 4
s 48.518374969 _28_ AGT  --- 260 cbr 512 [0 0 0 0] ------- [28:1 29:0 32 0] [1] 0 3
s 48.641692552 _36_ AGT  --- 261 cbr 512 [0 0 0 0] ------- [36:1 37:0 32 0] [33] 0 3
s 48.679193783 _11_ AGT  --- 262 cbr 512 [0 0 0 0] ------- [11:2 13:0 32 0] [3] 0 3
s 48.758181923 _9_ AGT  --- 263 cbr 512 [0 0 0 0] ------- [9:3 11:0 32 0] [17] 0 4
s 48.882184370 _8_ AGT  --- 264 cbr 512 [0 0 0 0] ------- [8:1 9:1 32 0] [27] 0 2
s 48.902585819 _7_ AGT  --- 265 cbr 512 [0 0 0 0] ------- [7:1 8:0 32 0] [20] 0 4
s 48.994962399 _15_ AGT  --- 266 cbr 512 [0 0 0 0] ------- [15:2 17:0 32 0] [6] 0 4
s 49.003287874 _1_ AGT  --- 267 cbr 512 [0 0 0 0] ------- [1:0 2:0 32 0] [49] 0 4
s 49.089358527 _35_ AGT  --- 268 cbr 512 [0 0 0 0] ------- [35:1 36:0 32 0] [16] 0 1
s 49.149955455 _15_ AGT  --- 269 cbr 512 [0 0 0 0] ------- [15:1 16:0 32 0] [10] 0 2
s 49.480074046 _7_ AGT  --- 270 cbr 512 [0 0 0 0] ------- [7:2 9:0 32 0] [40] 0 5
s 49.490342835 _11_ AGT  --- 271 cbr 512 [0 0 0 0] ------- [11:2 13:0 32 0] [4] 0 3
s 49.500234284 _26_ AGT  --- 272 cbr 512 [0 0 0 0] ------- [26:0 27:0 32 0] [3] 0 2
s 49.508053606 _1_ AGT  --- 273 cbr 512 [0 0 0 0] ------- [1:0 2:0 32 0] [50] 0 4
s 49.540818641 _9_ AGT  --- 274 cbr 512 [0 0 0 0] ------- [9:3 11:0 32 0] [18] 0 4
s 49.670571143 _17_ AGT  --- 275 cbr 512 [0 0 0 0] ------- [17:3 19:0 32 0] [35] 0 5
s 49.720256167 _28_ AGT  --- 276 cbr 512 [0 0 0 0] ------- [28:1 29:0 32 0] [2] 0 3
s 49.815921404 _36_ AGT  --- 277 cbr 512 [0 0 0 0] ------- [36:1 37:0 32 0] [34] 0 3
s 49.970636274 _7_ AGT  --- 278 cbr 512 [0 0 0 0] ------- [7:1 8:0 32 0] [21] 0 4
s 50.237635656 _35_ AGT  --- 279 cbr 512 [0 0 0 0] ------- [35:1 36:0 32 0] [17] 0 1
s 50.267082097 _15_ AGT  --- 280 cbr 512 [0 0 0 0] ------- [15:2 17:0 32 0] [7] 0 4
s 50.304131950 _15_ AGT  --- 281 cbr 512 [0 0 0 0] ------- [15:1 16:0 32 0] [11] 0 2
s 50.361978096 _8_ AGT  --- 282 cbr 512 [0 0 0 0] ------- [8:1 9:1 32 0] [28] 0 2
s 50.389740018 _28_ AGT  --- 283 cbr 512 [0 0 0 0] ------- [28:1 29:0 32 0] [3] 0 3
s 50.598757305 _17_ AGT  --- 284 cbr 512 [0 0 0 0] ------- [17:3 19:0 32 0] [36] 0 4
s 50.602410686 _7_ AGT  --- 285 cbr 512 [0 0 0 0] ------- [7:1 8:0 32 0] [22] 0 4
s 50.742809944 _26_ AGT  --- 286 cbr 512 [0 0 0 0] ------- [26:0 27:0 32 0] [4] 0 2
s 50.745888797 _9_ AGT  --- 287 cbr 512 [0 0 0 0] ------- [9:3 11:0 32 0] [19] 0 4
s 50.808550736 _36_ AGT  --- 288 cbr 512 [0 0 0 0] ------- [36:1 37:0 32 0] [35] 0 3
s 50.818472397 _1_ AGT  --- 289 cbr 512 [0 0 0 0] ------- [1:0 2:0 32 0] [51] 0 4
s 50.904773032 _11_ AGT  --- 290 cbr 512 [0 0 0 0] ------- [11:2 13:0 32 0] [5] 0 2
s 50.922329353 _7_ AGT  --- 291 cbr 512 [0 0 0 0] ------- [7:2 9:0 32 0] [41] 0 5
s 50.987534872 _15_ AGT  --- 292 cbr 512 [0 0 0 0] ------- [15:2 17:0 32 0] [8] 0 4
s 51.004570356 _15_ AGT  --- 293 cbr 512 [0 0 0 0] ------- [15:1 16:0 32 0] [12] 0 2
s 51.007998584 _8_ AGT  --- 294 cbr 512 [0 0 0 0] ------- [8:1 9:1 32 0] [29] 0 2
s 51.344671183 _1_ AGT  --- 295 cbr 512 [0 0 0 0] ------- [1:0 2:0 32 0] [52] 0 4
s 51.434582505 _28_ AGT  --- 296 cbr 512 [0 0 0 0] ------- [28:1 29:0 32 0] [4] 0 3
s 51.467614375 _36_ AGT  --- 297 cbr 512 [0 0 0 0] ------- [36:1 37:0 32 0] [36] 0 3
s 51.521714724 _26_ AGT  --- 298 cbr 512 [0 0 0 0] ------- [26:0 27:0 32 0] [5] 0 2
s 51.555875678 _7_ AGT  --- 299 cbr 512 [0 0 0 0] ------- [7:2 9:0 32 0] [42] 0 5
s 51.589842940 _35_ AGT  --- 300 cbr 512 [0 0 0 0] ------- [35:1 36:0 32 0] [18] 0 2
s 51.633191917 _9_ AGT  --- 301 cbr 512 [0 0 0 0] ------- [9:3 11:0 32 0] [20] 0 4
s 51.732838530 _17_ AGT  --- 302 cbr 512 [0 0 0 0] ------- [17:3 19:0 32 0] [37] 0 5
s 51.783267343 _15_ AGT  --- 303 cbr 512 [0 0 0 0] ------- [15:2 17:0 32 0] [9] 0 4
s 51.796253600 _8_ AGT  --- 304 cbr 512 [0 0 0 0] ------- [8:1 9:1 32 0] [30] 0 2
s 51.810115709 _7_ AGT  --- 305 cbr 512 [0 0 0 0] ------- [7:1 8:0 32 0] [23] 0 4
s 51.957451337 _15_ AGT  --- 306 cbr 512 [0 0 0 0] ------- [15:1 16:0 32 0] [13] 0 2
s 51.965507325 _11_ AGT  --- 307 cbr 512 [0 0 0 0] ------- [11:2 13:0 32 0] [6] 0 3
s 52.274016969 _28_ AGT  --- 308 cbr 512 [0 0 0 0] ------- [28:1 29:0 32 0] [5] 0 3
s 52.285829862 _1_ AGT  --- 309 cbr 512 [0 0 0 0] ------- [1:0 2:0 32 0] [53] 0 4
s 52.366963457 _15_ AGT  --- 310 cbr 512 [0 0 0 0] ------- [15:2 17:0 32 0] [10] 0 4
s 52.422614512 _36_ AGT  --- 311 cbr 512 [0 0 0 0] ------- [36:1 37:0 32 0] [37] 0 3
s 52.674369648 _26_ AGT  --- 312 cbr 512 [0 0 0 0] ------- [26:0 27:0 32 0] [6] 0 2
s 52.844794314 _11_ AGT  --- 313 cbr 512 [0 0 0 0] ------- [11:2 13:0 32 0] [7] 0 3
s 52.873493858 _35_ AGT  --- 314 cbr 512 [0 0 0 0] ------- [35:1 36:0 32 0] [19] 0 2
s 52.896463718 _8_ AGT  --- 315 cbr 512 [0 0 0 0] ------- [8:1 9:1 32 0] [31] 0 2
s 52.902635492 _7_ AGT  --- 316 cbr 512 [0 0 0 0] ------- [7:2 9:0 32 0] [43] 0 5
s 53.036585563 _9_ AGT  --- 317 cbr 512 [0 0 0 0] ------- [9:3 11:0 32 0] [21] 0 5
s 53.103813462 _17_ AGT  --- 318 cbr 512 [0 0 0 0] ------- [17:3 19:0 32 0] [38] 0 5
s 53.107318490 _15_ AGT  --- 319 cbr 512 [0 0 0 0] ------- [15:2 17:0 32 0] [11] 0 4
s 53.228824027 _26_ AGT  --- 320 cbr 512 [0 0 0 0] ------- [26:0 27:0 32 0] [7] 0 2
s 53.261330207 _15_ AGT  --- 321 cbr 512 [0 0 0 0] ------- [15:1 16:0 32 0] [14] 0 2
s 53.303077897 _7_ AGT  --- 322 cbr 512 [0 0 0 0] ------- [7:1 8:0 32 0] [24] 0 4
s 53.531386777 _35_ AGT  --- 323 cbr 512 [0 0 0 0] ------- [35:1 36:0 32 0] [20] 0 2
s 53.595143138 _28_ AGT  --- 324 cbr 512 [0 0 0 0] ------- [28:1 29:0 32 0] [6] 0 3
s 53.712553231 _1_ AGT  --- 325 cbr 512 [0 0 0 0] ------- [1:0 2:0 32 0] [54] 0 4
s 53.881999237 _36_ AGT  --- 326 cbr 512 [0 0 0 0] ------- [36:1 37:0 32 0] [38] 0 3
s 54.029467405 _11_ AGT  --- 327 cbr 512 [0 0 0 0] ------- [11:2 13:0 32 0] [8] 0 3
s 54.033448274 _17_ AGT  --- 328 cbr 512 [0 0 0 0] ------- [17:3 19:0 32 0] [39] 0 5
s 54.050468788 _15_ AGT  --- 329 cbr 512 [0 0 0 0] ------- [15:2 17:0 32 0] [12] 0 4
s 54.074881013 _8_ AGT  --- 330 cbr 512 [0 0 0 0] ------- [8:1 9:1 32 0] [32] 0 2
s 54.208076739 _15_ AGT  --- 331 cbr 512 [0 0 0 0] ------- [15:1 16:0 32 0] [15] 0 2
s 54.240871586 _9_ AGT  --- 332 cbr 512 [0 0 0 0] ------- [9:3 11:0 32 0] [22] 0 5
s 54.332913115 _35_ AGT  --- 333 cbr 512 [0 0 0 0] ------- [35:1 36:0 32 0] [21] 0 2
s 54.370135496 _7_ AGT  --- 334 cbr 512 [0 0 0 0] ------- [7:2 9:0 32 0] [44] 0 5
s 54.488212060 _1_ AGT  --- 335 cbr 512 [0 0 0 0] ------- [1:0 2:0 32 0] [55] 0 4
s 54.634122551 _26_ AGT  --- 336 cbr 512 [0 0 0 0] ------- [26:0 27:0 32 0] [8] 0 2
s 54.648814764 _7_ AGT  --- 337 cbr 512 [0 0 0 0] ------- [7:1 8:0 32 0] [25] 0 4
s 54.672538684 _17_ AGT  --- 338 cbr 512 [0 0 0 0] ------- [17:3 19:0 32 0] [40] 0 5
s 54.799726940 _28_ AGT  --- 339 cbr 512 [0 0 0 0] ------- [28:1 29:0 32 0] [7] 0 3
s 54.938929571 _36_ AGT  --- 340 cbr 512 [0 0 0 0] ------- [36:1 37:0 32 0] [39] 0 3
s 54.942359449 _7_ AGT  --- 341 cbr 512 [0 0 0 0] ------- [7:2 9:0 32 0] [45] 0 5
s 55.153131481 _9_ AGT  --- 342 cbr 512 [0 0 0 0] ------- [9:3 11:0 32 0] [23] 0 5
s 55.212631818 _15_ AGT  --- 343 cbr 512 [0 0 0 0] ------- [15:1 16:0 32 0] [16] 0 2
s 55.414648095 _11_ AGT  --- 344 cbr 512 [0 0 0 0] ------- [11:2 13:0 32 0] [9] 0 3
s 55.466336852 _7_ AGT  --- 345 cbr 512 [0 0 0 0] ------- [7:2 9:0 32 0] [46] 0 5
s 55.469483352 _28_ AGT  --- 346 cbr 512 [0 0 0 0] ------- [28:1 29:0 32 0] [8] 0 3
s 55.471475014 _15_ AGT  --- 347 cbr 512 [0 0 0 0] ------- [15:2 17:0 32 0] [13] 0 4
s 55.471821271 _8_ AGT  --- 348 cbr 512 [0 0 0 0] ------- [8:1 9:1 32 0] [33] 0 2
s 55.474064494 _7_ AGT  --- 349 cbr 512 [0 0 0 0] ------- [7:1 8:0 32 0] [26] 0 4
s 55.559813100 _35_ AGT  --- 350 cbr 512 [0 0 0 0] ------- [35:1 36:0 32 0] [22] 0 2
s 55.634230383 _6_ AGT  --- 351 cbr 512 [0 0 0 0] ------- [6:1 7:0 32 0] [0] 0 6
s 55.708598036 _1_ AGT  --- 352 cbr 512 [0 0 0 0] ------- [1:0 2:0 32 0] [56] 0 5
s 55.828207169 _26_ AGT  --- 353 cbr 512 [0 0 0 0] ------- [26:0 27:0 32 0] [9] 0 2
s 55.991672356 _11_ AGT  --- 354 cbr 512 [0 0 0 0] ------- [11:2 13:0 32 0] [10] 0 3
s 56.017150877 _17_ AGT  --- 355 cbr 512 [0 0 0 0] ------- [17:3 19:0 32 0] [41] 0 6
s 56.132068300 _36_ AGT  --- 356 cbr 512 [0 0 0 0] ------- [36:1 37:0 32 0] [40] 0 3
s 56.139764921 _15_ AGT  --- 357 cbr 512 [0 0 0 0] ------- [15:1 16:0 32 0] [17] 0 2
s 56.197899586 _7_ AGT  --- 358 cbr 512 [0 0 0 0] ------- [7:1 8:0 32 0] [27] 0 4
s 56.247640864 _7_ AGT  --- 359 cbr 512 [0 0 0 0] ------- [7:2 9:0 32 0] [47] 0 5
s 56.333118918 _4_ AGT  --- 360 cbr 512 [0 0 0 0] ------- [4:0 5:0 32 0] [0] 0 5