+ 1.0000 66 26 cbr 210 ------- 0 66.0 67.0 0 0 37.90 -122.30 48.90 -120.94
- 1.0000 66 26 cbr 210 ------- 0 66.0 67.0 0 0 37.90 -122.30 48.90 -120.94
r 1.0063 66 26 cbr 210 ------- 0 66.0 67.0 0 0 37.90 -122.30 48.90 -120.94
+ 1.0063 26 37 cbr 210 ------- 0 66.0 67.0 0 0 48.90 -120.94 32.60 -87.51
- 1.0063 26 37 cbr 210 ------- 0 66.0 67.0 0 0 48.90 -120.94 32.60 -87.51
r 1.0186 26 37 cbr 210 ------- 0 66.0 67.0 0 0 48.90 -120.94 32.60 -87.51
+ 1.0186 37 48 cbr 210 ------- 0 66.0 67.0 0 0 32.60 -87.51 48.90 -57.74
- 1.0186 37 48 cbr 210 ------- 0 66.0 67.0 0 0 32.60 -87.51 48.90 -57.74
r 1.0300 37 48 cbr 210 ------- 0 66.0 67.0 0 0 32.60 -87.51 48.90 -57.74
+ 1.0300 48 67 cbr 210 ------- 0 66.0 67.0 0 0 48.90 -57.74 42.30 -71.10
- 1.0300 48 67 cbr 210 ------- 0 66.0 67.0 0 0 48.90 -57.74 42.30 -71.10
r 1.0364 48 67 cbr 210 ------- 0 66.0 67.0 0 0 48.90 -57.74 42.30 -71.10
+ 61.0100 66 26 cbr 210 ------- 0 66.0 67.0 1 1 37.90 -122.30 45.33 -120.70
- 61.0100 66 26 cbr 210 ------- 0 66.0 67.0 1 1 37.90 -122.30 45.33 -120.70
r 61.0151 66 26 cbr 210 ------- 0 66.0 67.0 1 1 37.90 -122.30 45.33 -120.70
+ 61.0151 26 37 cbr 210 ------- 0 66.0 67.0 1 1 45.33 -120.70 29.02 -87.46
- 61.0151 26 37 cbr 210 ------- 0 66.0 67.0 1 1 45.33 -120.70 29.02 -87.46
r 61.0279 26 37 cbr 210 ------- 0 66.0 67.0 1 1 45.33 -120.70 29.02 -87.46
+ 61.0279 37 48 cbr 210 ------- 0 66.0 67.0 1 1 29.02 -87.46 45.33 -57.50
- 61.0279 37 48 cbr 210 ------- 0 66.0 67.0 1 1 29.02 -87.46 45.33 -57.50
r 61.0398 37 48 cbr 210 ------- 0 66.0 67.0 1 1 29.02 -87.46 45.33 -57.50
+ 61.0398 48 67 cbr 210 ------- 0 66.0 67.0 1 1 45.33 -57.50 42.30 -71.10
- 61.0398 48 67 cbr 210 ------- 0 66.0 67.0 1 1 45.33 -57.50 42.30 -71.10
r 61.0458 48 67 cbr 210 ------- 0 66.0 67.0 1 1 45.33 -57.50 42.30 -71.10
+ 121.0200 66 26 cbr 210 ------- 0 66.0 67.0 2 2 37.90 -122.30 41.76 -120.53
- 121.0200 66 26 cbr 210 ------- 0 66.0 67.0 2 2 37.90 -122.30 41.76 -120.53
r 121.0243 66 26 cbr 210 ------- 0 66.0 67.0 2 2 37.90 -122.30 41.76 -120.53
+ 121.0243 26 37 cbr 210 ------- 0 66.0 67.0 2 2 41.76 -120.53 25.45 -87.42
- 121.0243 26 37 cbr 210 ------- 0 66.0 67.0 2 2 41.76 -120.53 25.45 -87.42
r 121.0374 26 37 cbr 210 ------- 0 66.0 67.0 2 2 41.76 -120.53 25.45 -87.42
+ 121.0374 37 48 cbr 210 ------- 0 66.0 67.0 2 2 25.45 -87.42 41.76 -57.33
- 121.0374 37 48 cbr 210 ------- 0 66.0 67.0 2 2 25.45 -87.42 41.76 -57.33
r 121.0497 37 48 cbr 210 ------- 0 66.0 67.0 2 2 25.45 -87.42 41.76 -57.33
+ 121.0497 48 67 cbr 210 ------- 0 66.0 67.0 2 2 41.76 -57.33 42.30 -71.10
- 121.0497 48 67 cbr 210 ------- 0 66.0 67.0 2 2 41.76 -57.33 42.30 -71.10
r 121.0557 48 67 cbr 210 ------- 0 66.0 67.0 2 2 41.76 -57.33 42.30 -71.10
+ 181.0300 66 26 cbr 210 ------- 0 66.0 67.0 3 3 37.90 -122.30 38.19 -120.39
- 181.0300 66 26 cbr 210 ------- 0 66.0 67.0 3 3 37.90 -122.30 38.19 -120.39
r 181.0339 66 26 cbr 210 ------- 0 66.0 67.0 3 3 37.90 -122.30 38.19 -120.39
+ 181.0339 26 37 cbr 210 ------- 0 66.0 67.0 3 3 38.19 -120.39 21.87 -87.40
- 181.0339 26 37 cbr 210 ------- 0 66.0 67.0 3 3 38.19 -120.39 21.87 -87.40
r 181.0474 26 37 cbr 210 ------- 0 66.0 67.0 3 3 38.19 -120.39 21.87 -87.40
+ 181.0474 37 48 cbr 210 ------- 0 66.0 67.0 3 3 21.87 -87.40 38.19 -57.19
- 181.0474 37 48 cbr 210 ------- 0 66.0 67.0 3 3 21.87 -87.40 38.19 -57.19
r 181.0600 37 48 cbr 210 ------- 0 66.0 67.0 3 3 21.87 -87.40 38.19 -57.19
+ 181.0600 48 67 cbr 210 ------- 0 66.0 67.0 3 3 38.19 -57.19 42.30 -71.10
- 181.0600 48 67 cbr 210 ------- 0 66.0 67.0 3 3 38.19 -57.19 42.30 -71.10
r 181.0664 48 67 cbr 210 ------- 0 66.0 67.0 3 3 38.19 -57.19 42.30 -71.10
+ 241.0400 66 26 cbr 210 ------- 0 66.0 67.0 4 4 37.90 -122.30 34.61 -120.30
- 241.0400 66 26 cbr 210 ------- 0 66.0 67.0 4 4 37.90 -122.30 34.61 -120.30
r 241.0442 66 26 cbr 210 ------- 0 66.0 67.0 4 4 37.90 -122.30 34.61 -120.30
+ 241.0442 26 37 cbr 210 ------- 0 66.0 67.0 4 4 34.61 -120.30 18.29 -87.40
- 241.0442 26 37 cbr 210 ------- 0 66.0 67.0 4 4 34.61 -120.30 18.29 -87.40
r 241.0580 26 37 cbr 210 ------- 0 66.0 67.0 4 4 34.61 -120.30 18.29 -87.40
+ 241.0580 37 48 cbr 210 ------- 0 66.0 67.0 4 4 18.29 -87.40 34.61 -57.10
- 241.0580 37 48 cbr 210 ------- 0 66.0 67.0 4 4 18.29 -87.40 34.61 -57.10
r 241.0710 37 48 cbr 210 ------- 0 66.0 67.0 4 4 18.29 -87.40 34.61 -57.10
+ 241.0710 48 67 cbr 210 ------- 0 66.0 67.0 4 4 34.61 -57.10 42.30 -71.10
- 241.0710 48 67 cbr 210 ------- 0 66.0 67.0 4 4 34.61 -57.10 42.30 -71.10
r 241.0781 48 67 cbr 210 ------- 0 66.0 67.0 4 4 34.61 -57.10 42.30 -71.10
+ 301.0500 66 26 cbr 210 ------- 0 66.0 67.0 5 5 37.90 -122.30 31.04 -120.23
- 301.0500 66 26 cbr 210 ------- 0 66.0 67.0 5 5 37.90 -122.30 31.04 -120.23
r 301.0550 66 26 cbr 210 ------- 0 66.0 67.0 5 5 37.90 -122.30 31.04 -120.23
+ 301.0550 26 37 cbr 210 ------- 0 66.0 67.0 5 5 31.04 -120.23 14.72 -87.40
- 301.0550 26 37 cbr 210 ------- 0 66.0 67.0 5 5 31.04 -120.23 14.72 -87.40
r 301.0691 26 37 cbr 210 ------- 0 66.0 67.0 5 5 31.04 -120.23 14.72 -87.40
+ 301.0691 37 48 cbr 210 ------- 0 66.0 67.0 5 5 14.72 -87.40 31.04 -57.03
- 301.0691 37 48 cbr 210 ------- 0 66.0 67.0 5 5 14.72 -87.40 31.04 -57.03
r 301.0824 37 48 cbr 210 ------- 0 66.0 67.0 5 5 14.72 -87.40 31.04 -57.03
+ 301.0824 48 67 cbr 210 ------- 0 66.0 67.0 5 5 31.04 -57.03 42.30 -71.10
- 301.0824 48 67 cbr 210 ------- 0 66.0 67.0 5 5 31.04 -57.03 42.30 -71.10
r 301.0904 48 67 cbr 210 ------- 0 66.0 67.0 5 5 31.04 -57.03 42.30 -71.10
+ 361.0600 66 26 cbr 210 ------- 0 66.0 67.0 6 6 37.90 -122.30 27.46 -120.18
- 361.0600 66 26 cbr 210 ------- 0 66.0 67.0 6 6 37.90 -122.30 27.46 -120.18
r 361.0661 66 26 cbr 210 ------- 0 66.0 67.0 6 6 37.90 -122.30 27.46 -120.18
+ 361.0661 26 37 cbr 210 ------- 0 66.0 67.0 6 6 27.46 -120.18 11.14 -87.42
- 361.0661 26 37 cbr 210 ------- 0 66.0 67.0 6 6 27.46 -120.18 11.14 -87.42
r 361.0805 26 37 cbr 210 ------- 0 66.0 67.0 6 6 27.46 -120.18 11.14 -87.42
+ 361.0805 37 48 cbr 210 ------- 0 66.0 67.0 6 6 11.14 -87.42 27.46 -56.98
- 361.0805 37 48 cbr 210 ------- 0 66.0 67.0 6 6 11.14 -87.42 27.46 -56.98
r 361.0941 37 48 cbr 210 ------- 0 66.0 67.0 6 6 11.14 -87.42 27.46 -56.98
+ 361.0941 48 67 cbr 210 ------- 0 66.0 67.0 6 6 27.46 -56.98 42.30 -71.10
- 361.0941 48 67 cbr 210 ------- 0 66.0 67.0 6 6 27.46 -56.98 42.30 -71.10
r 361.1031 48 67 cbr 210 ------- 0 66.0 67.0 6 6 27.46 -56.98 42.30 -71.10
+ 421.0700 66 26 cbr 210 ------- 0 66.0 67.0 7 7 37.90 -122.30 23.89 -120.16
- 421.0700 66 26 cbr 210 ------- 0 66.0 67.0 7 7 37.90 -122.30 23.89 -120.16
r 421.0773 66 26 cbr 210 ------- 0 66.0 67.0 7 7 37.90 -122.30 23.89 -120.16
+ 421.0773 26 25 cbr 210 ------- 0 66.0 67.0 7 7 23.89 -120.16 56.50 -124.01
- 421.0773 26 25 cbr 210 ------- 0 66.0 67.0 7 7 23.89 -120.16 56.50 -124.01
r 421.0909 26 25 cbr 210 ------- 0 66.0 67.0 7 7 23.89 -120.16 56.50 -124.01
+ 421.0909 25 36 cbr 210 ------- 0 66.0 67.0 7 7 56.50 -124.01 40.20 -90.01
- 421.0909 25 36 cbr 210 ------- 0 66.0 67.0 7 7 56.50 -124.01 40.20 -90.01
r 421.1022 25 36 cbr 210 ------- 0 66.0 67.0 7 7 56.50 -124.01 40.20 -90.01
+ 421.1022 36 47 cbr 210 ------- 0 66.0 67.0 7 7 40.20 -90.01 56.50 -60.81
- 421.1022 36 47 cbr 210 ------- 0 66.0 67.0 7 7 40.20 -90.01 56.50 -60.81
r 421.1127 36 47 cbr 210 ------- 0 66.0 67.0 7 7 40.20 -90.01 56.49 -60.81
+ 421.1127 47 67 cbr 210 ------- 0 66.0 67.0 7 7 56.49 -60.81 42.30 -71.10
- 421.1127 47 67 cbr 210 ------- 0 66.0 67.0 7 7 56.49 -60.81 42.30 -71.10
r 421.1205 47 67 cbr 210 ------- 0 66.0 67.0 7 7 56.49 -60.81 42.30 -71.10
+ 481.0800 66 26 cbr 210 ------- 0 66.0 67.0 8 8 37.90 -122.30 20.31 -120.14
- 481.0800 66 26 cbr 210 ------- 0 66.0 67.0 8 8 37.90 -122.30 20.31 -120.14
r 481.0886 66 26 cbr 210 ------- 0 66.0 67.0 8 8 37.90 -122.30 20.31 -120.14
+ 481.0886 26 25 cbr 210 ------- 0 66.0 67.0 8 8 20.31 -120.14 52.93 -123.59
- 481.0886 26 25 cbr 210 ------- 0 66.0 67.0 8 8 20.31 -120.14 52.93 -123.59
r 481.1021 26 25 cbr 210 ------- 0 66.0 67.0 8 8 20.31 -120.14 52.93 -123.59
+ 481.1021 25 36 cbr 210 ------- 0 66.0 67.0 8 8 52.93 -123.59 36.63 -89.89
- 481.1021 25 36 cbr 210 ------- 0 66.0 67.0 8 8 52.93 -123.59 36.63 -89.89
r 481.1140 25 36 cbr 210 ------- 0 66.0 67.0 8 8 52.93 -123.59 36.63 -89.89
+ 481.1140 36 47 cbr 210 ------- 0 66.0 67.0 8 8 36.63 -89.89 52.93 -60.39
- 481.1140 36 47 cbr 210 ------- 0 66.0 67.0 8 8 36.63 -89.89 52.93 -60.39
r 481.1249 36 47 cbr 210 ------- 0 66.0 67.0 8 8 36.63 -89.89 52.93 -60.39
+ 481.1249 47 67 cbr 210 ------- 0 66.0 67.0 8 8 52.93 -60.39 42.30 -71.10
- 481.1249 47 67 cbr 210 ------- 0 66.0 67.0 8 8 52.93 -60.39 42.30 -71.10
r 481.1318 47 67 cbr 210 ------- 0 66.0 67.0 8 8 52.93 -60.39 42.30 -71.10
+ 541.0900 66 25 cbr 210 ------- 0 66.0 67.0 9 9 37.90 -122.30 49.37 -123.27
- 541.0900 66 25 cbr 210 ------- 0 66.0 67.0 9 9 37.90 -122.30 49.37 -123.27
r 541.0964 66 25 cbr 210 ------- 0 66.0 67.0 9 9 37.90 -122.30 49.37 -123.27
+ 541.0964 25 36 cbr 210 ------- 0 66.0 67.0 9 9 49.37 -123.27 33.06 -89.81
- 541.0964 25 36 cbr 210 ------- 0 66.0 67.0 9 9 49.37 -123.27 33.06 -89.81
r 541.1087 25 36 cbr 210 ------- 0 66.0 67.0 9 9 49.37 -123.27 33.05 -89.81
+ 541.1087 36 47 cbr 210 ------- 0 66.0 67.0 9 9 33.05 -89.81 49.37 -60.07
- 541.1087 36 47 cbr 210 ------- 0 66.0 67.0 9 9 33.05 -89.81 49.37 -60.07
r 541.1201 36 47 cbr 210 ------- 0 66.0 67.0 9 9 33.05 -89.81 49.37 -60.07
+ 541.1201 47 67 cbr 210 ------- 0 66.0 67.0 9 9 49.37 -60.07 42.30 -71.10
- 541.1201 47 67 cbr 210 ------- 0 66.0 67.0 9 9 49.37 -60.07 42.30 -71.10
r 541.1261 47 67 cbr 210 ------- 0 66.0 67.0 9 9 49.37 -60.07 42.30 -71.10
+ 601.1000 66 25 cbr 210 ------- 0 66.0 67.0 10 10 37.90 -122.30 45.80 -123.02
- 601.1000 66 25 cbr 210 ------- 0 66.0 67.0 10 10 37.90 -122.30 45.80 -123.02
r 601.1053 66 25 cbr 210 ------- 0 66.0 67.0 10 10 37.90 -122.30 45.80 -123.02
+ 601.1053 25 36 cbr 210 ------- 0 66.0 67.0 10 10 45.80 -123.02 29.48 -89.75
- 601.1053 25 36 cbr 210 ------- 0 66.0 67.0 10 10 45.80 -123.02 29.48 -89.75
r 601.1180 25 36 cbr 210 ------- 0 66.0 67.0 10 10 45.80 -123.02 29.48 -89.75
+ 601.1180 36 47 cbr 210 ------- 0 66.0 67.0 10 10 29.48 -89.75 45.80 -59.82
- 601.1180 36 47 cbr 210 ------- 0 66.0 67.0 10 10 29.48 -89.75 45.80 -59.82
r 601.1298 36 47 cbr 210 ------- 0 66.0 67.0 10 10 29.48 -89.75 45.80 -59.82
+ 601.1298 47 67 cbr 210 ------- 0 66.0 67.0 10 10 45.80 -59.82 42.30 -71.10
- 601.1298 47 67 cbr 210 ------- 0 66.0 67.0 10 10 45.80 -59.82 42.30 -71.10
r 601.1353 47 67 cbr 210 ------- 0 66.0 67.0 10 10 45.80 -59.82 42.30 -71.10
+ 661.1100 66 25 cbr 210 ------- 0 66.0 67.0 11 11 37.90 -122.30 42.23 -122.84
- 661.1100 66 25 cbr 210 ------- 0 66.0 67.0 11 11 37.90 -122.30 42.23 -122.84
r 661.1143 66 25 cbr 210 ------- 0 66.0 67.0 11 11 37.90 -122.30 42.23 -122.84
+ 661.1143 25 36 cbr 210 ------- 0 66.0 67.0 11 11 42.23 -122.84 25.91 -89.71
- 661.1143 25 36 cbr 210 ------- 0 66.0 67.0 11 11 42.23 -122.84 25.91 -89.71
r 661.1274 25 36 cbr 210 ------- 0 66.0 67.0 11 11 42.23 -122.84 25.90 -89.71
+ 661.1274 36 47 cbr 210 ------- 0 66.0 67.0 11 11 25.90 -89.71 42.23 -59.64
- 661.1274 36 47 cbr 210 ------- 0 66.0 67.0 11 11 25.90 -89.71 42.23 -59.64
r 661.1397 36 47 cbr 210 ------- 0 66.0 67.0 11 11 25.90 -89.71 42.23 -59.64
+ 661.1397 47 67 cbr 210 ------- 0 66.0 67.0 11 11 42.23 -59.64 42.30 -71.10
- 661.1397 47 67 cbr 210 ------- 0 66.0 67.0 11 11 42.23 -59.64 42.30 -71.10
r 661.1451 47 67 cbr 210 ------- 0 66.0 67.0 11 11 42.23 -59.64 42.30 -71.10
+ 721.1200 66 25 cbr 210 ------- 0 66.0 67.0 12 12 37.90 -122.30 38.66 -122.70
- 721.1200 66 25 cbr 210 ------- 0 66.0 67.0 12 12 37.90 -122.30 38.66 -122.70
r 721.1238 66 25 cbr 210 ------- 0 66.0 67.0 12 12 37.90 -122.30 38.66 -122.70
+ 721.1238 25 36 cbr 210 ------- 0 66.0 67.0 12 12 38.66 -122.70 22.33 -89.69
- 721.1238 25 36 cbr 210 ------- 0 66.0 67.0 12 12 38.66 -122.70 22.33 -89.69
r 721.1373 25 36 cbr 210 ------- 0 66.0 67.0 12 12 38.65 -122.70 22.33 -89.69
+ 721.1373 36 47 cbr 210 ------- 0 66.0 67.0 12 12 22.33 -89.69 38.65 -59.50
- 721.1373 36 47 cbr 210 ------- 0 66.0 67.0 12 12 22.33 -89.69 38.65 -59.50
r 721.1499 36 47 cbr 210 ------- 0 66.0 67.0 12 12 22.33 -89.69 38.65 -59.50
+ 721.1499 47 67 cbr 210 ------- 0 66.0 67.0 12 12 38.65 -59.50 42.30 -71.10
- 721.1499 47 67 cbr 210 ------- 0 66.0 67.0 12 12 38.65 -59.50 42.30 -71.10
r 721.1557 47 67 cbr 210 ------- 0 66.0 67.0 12 12 38.65 -59.50 42.30 -71.10
+ 781.1300 66 25 cbr 210 ------- 0 66.0 67.0 13 13 37.90 -122.30 35.08 -122.60
- 781.1300 66 25 cbr 210 ------- 0 66.0 67.0 13 13 37.90 -122.30 35.08 -122.60
r 781.1340 66 25 cbr 210 ------- 0 66.0 67.0 13 13 37.90 -122.30 35.08 -122.60
+ 781.1340 25 36 cbr 210 ------- 0 66.0 67.0 13 13 35.08 -122.60 18.75 -89.69
- 781.1340 25 36 cbr 210 ------- 0 66.0 67.0 13 13 35.08 -122.60 18.75 -89.69
r 781.1478 25 36 cbr 210 ------- 0 66.0 67.0 13 13 35.08 -122.60 18.75 -89.69
+ 781.1478 36 47 cbr 210 ------- 0 66.0 67.0 13 13 18.75 -89.69 35.08 -59.40
- 781.1478 36 47 cbr 210 ------- 0 66.0 67.0 13 13 18.75 -89.69 35.08 -59.40
r 781.1608 36 47 cbr 210 ------- 0 66.0 67.0 13 13 18.75 -89.69 35.08 -59.40
+ 781.1608 47 67 cbr 210 ------- 0 66.0 67.0 13 13 35.08 -59.40 42.30 -71.10
- 781.1608 47 67 cbr 210 ------- 0 66.0 67.0 13 13 35.08 -59.40 42.30 -71.10
r 781.1672 47 67 cbr 210 ------- 0 66.0 67.0 13 13 35.08 -59.40 42.30 -71.10
+ 841.1400 66 25 cbr 210 ------- 0 66.0 67.0 14 14 37.90 -122.30 31.51 -122.52
- 841.1400 66 25 cbr 210 ------- 0 66.0 67.0 14 14 37.90 -122.30 31.51 -122.52
r 841.1448 66 25 cbr 210 ------- 0 66.0 67.0 14 14 37.90 -122.30 31.51 -122.52
+ 841.1448 25 36 cbr 210 ------- 0 66.0 67.0 14 14 31.51 -122.52 15.18 -89.69
- 841.1448 25 36 cbr 210 ------- 0 66.0 67.0 14 14 31.51 -122.52 15.18 -89.69
r 841.1589 25 36 cbr 210 ------- 0 66.0 67.0 14 14 31.51 -122.52 15.18 -89.69
+ 841.1589 36 47 cbr 210 ------- 0 66.0 67.0 14 14 15.18 -89.69 31.51 -59.32
- 841.1589 36 47 cbr 210 ------- 0 66.0 67.0 14 14 15.18 -89.69 31.51 -59.32
r 841.1722 36 47 cbr 210 ------- 0 66.0 67.0 14 14 15.17 -89.69 31.51 -59.32
+ 841.1722 47 67 cbr 210 ------- 0 66.0 67.0 14 14 31.51 -59.32 42.30 -71.10
- 841.1722 47 67 cbr 210 ------- 0 66.0 67.0 14 14 31.51 -59.32 42.30 -71.10
r 841.1796 47 67 cbr 210 ------- 0 66.0 67.0 14 14 31.51 -59.32 42.30 -71.10
+ 901.1500 66 25 cbr 210 ------- 0 66.0 67.0 15 15 37.90 -122.30 27.93 -122.48
- 901.1500 66 25 cbr 210 ------- 0 66.0 67.0 15 15 37.90 -122.30 27.93 -122.48
r 901.1559 66 25 cbr 210 ------- 0 66.0 67.0 15 15 37.90 -122.30 27.93 -122.48
+ 901.1559 25 36 cbr 210 ------- 0 66.0 67.0 15 15 27.93 -122.48 11.60 -89.71
- 901.1559 25 36 cbr 210 ------- 0 66.0 67.0 15 15 27.93 -122.48 11.60 -89.71
r 901.1702 25 36 cbr 210 ------- 0 66.0 67.0 15 15 27.93 -122.48 11.60 -89.71
+ 901.1702 36 47 cbr 210 ------- 0 66.0 67.0 15 15 11.60 -89.71 27.93 -59.28
- 901.1702 36 47 cbr 210 ------- 0 66.0 67.0 15 15 11.60 -89.71 27.93 -59.28
r 901.1838 36 47 cbr 210 ------- 0 66.0 67.0 15 15 11.60 -89.71 27.93 -59.28
+ 901.1838 47 67 cbr 210 ------- 0 66.0 67.0 15 15 27.93 -59.28 42.30 -71.10
- 901.1838 47 67 cbr 210 ------- 0 66.0 67.0 15 15 27.93 -59.28 42.30 -71.10
r 901.1923 47 67 cbr 210 ------- 0 66.0 67.0 15 15 27.93 -59.28 42.30 -71.10
+ 961.1600 66 25 cbr 210 ------- 0 66.0 67.0 16 16 37.90 -122.30 24.36 -122.45
- 961.1600 66 25 cbr 210 ------- 0 66.0 67.0 16 16 37.90 -122.30 24.36 -122.45
r 961.1671 66 25 cbr 210 ------- 0 66.0 67.0 16 16 37.90 -122.30 24.36 -122.45
+ 961.1671 25 24 cbr 210 ------- 0 66.0 67.0 16 16 24.36 -122.45 56.96 -126.37
- 961.1671 25 24 cbr 210 ------- 0 66.0 67.0 16 16 24.36 -122.45 56.96 -126.37
r 961.1807 25 24 cbr 210 ------- 0 66.0 67.0 16 16 24.36 -122.45 56.96 -126.37
+ 961.1807 24 35 cbr 210 ------- 0 66.0 67.0 16 16 56.96 -126.37 40.67 -92.31
- 961.1807 24 35 cbr 210 ------- 0 66.0 67.0 16 16 56.96 -126.37 40.67 -92.31
r 961.1920 24 35 cbr 210 ------- 0 66.0 67.0 16 16 56.96 -126.37 40.67 -92.31
+ 961.1920 35 46 cbr 210 ------- 0 66.0 67.0 16 16 40.67 -92.31 56.96 -63.17
- 961.1920 35 46 cbr 210 ------- 0 66.0 67.0 16 16 40.67 -92.31 56.96 -63.17
r 961.2023 35 46 cbr 210 ------- 0 66.0 67.0 16 16 40.67 -92.31 56.96 -63.17
+ 961.2023 46 67 cbr 210 ------- 0 66.0 67.0 16 16 56.96 -63.17 42.30 -71.10
- 961.2023 46 67 cbr 210 ------- 0 66.0 67.0 16 16 56.96 -63.17 42.30 -71.10
r 961.2101 46 67 cbr 210 ------- 0 66.0 67.0 16 16 56.96 -63.17 42.30 -71.10
+ 1021.1700 66 25 cbr 210 ------- 0 66.0 67.0 17 17 37.90 -122.30 20.78 -122.43
- 1021.1700 66 25 cbr 210 ------- 0 66.0 67.0 17 17 37.90 -122.30 20.78 -122.43
r 1021.1784 66 25 cbr 210 ------- 0 66.0 67.0 17 17 37.90 -122.30 20.78 -122.43
+ 1021.1784 25 24 cbr 210 ------- 0 66.0 67.0 17 17 20.78 -122.43 53.40 -125.93
- 1021.1784 25 24 cbr 210 ------- 0 66.0 67.0 17 17 20.78 -122.43 53.40 -125.93
r 1021.1919 25 24 cbr 210 ------- 0 66.0 67.0 17 17 20.78 -122.43 53.40 -125.93
+ 1021.1919 24 35 cbr 210 ------- 0 66.0 67.0 17 17 53.40 -125.93 37.10 -92.19
- 1021.1919 24 35 cbr 210 ------- 0 66.0 67.0 17 17 53.40 -125.93 37.10 -92.19
r 1021.2037 24 35 cbr 210 ------- 0 66.0 67.0 17 17 53.40 -125.93 37.10 -92.19
+ 1021.2037 35 46 cbr 210 ------- 0 66.0 67.0 17 17 37.10 -92.19 53.40 -62.73
- 1021.2037 35 46 cbr 210 ------- 0 66.0 67.0 17 17 37.10 -92.19 53.40 -62.73
r 1021.2146 35 46 cbr 210 ------- 0 66.0 67.0 17 17 37.10 -92.19 53.40 -62.73
+ 1021.2146 46 67 cbr 210 ------- 0 66.0 67.0 17 17 53.40 -62.73 42.30 -71.10
- 1021.2146 46 67 cbr 210 ------- 0 66.0 67.0 17 17 53.40 -62.73 42.30 -71.10
r 1021.2213 46 67 cbr 210 ------- 0 66.0 67.0 17 17 53.40 -62.73 42.30 -71.10
+ 1081.1800 66 24 cbr 210 ------- 0 66.0 67.0 18 18 37.90 -122.30 49.83 -125.59
- 1081.1800 66 24 cbr 210 ------- 0 66.0 67.0 18 18 37.90 -122.30 49.83 -125.59
r 1081.1866 66 24 cbr 210 ------- 0 66.0 67.0 18 18 37.90 -122.30 49.83 -125.59
+ 1081.1866 24 35 cbr 210 ------- 0 66.0 67.0 18 18 49.83 -125.59 33.52 -92.11
- 1081.1866 24 35 cbr 210 ------- 0 66.0 67.0 18 18 49.83 -125.59 33.52 -92.11
r 1081.1989 24 35 cbr 210 ------- 0 66.0 67.0 18 18 49.83 -125.59 33.52 -92.11
+ 1081.1989 35 46 cbr 210 ------- 0 66.0 67.0 18 18 33.52 -92.11 49.83 -62.39
- 1081.1989 35 46 cbr 210 ------- 0 66.0 67.0 18 18 33.52 -92.11 49.83 -62.39
r 1081.2102 35 46 cbr 210 ------- 0 66.0 67.0 18 18 33.52 -92.11 49.83 -62.39
+ 1081.2102 46 67 cbr 210 ------- 0 66.0 67.0 18 18 49.83 -62.39 42.30 -71.10
- 1081.2102 46 67 cbr 210 ------- 0 66.0 67.0 18 18 49.83 -62.39 42.30 -71.10
r 1081.2160 46 67 cbr 210 ------- 0 66.0 67.0 18 18 49.83 -62.39 42.30 -71.10
+ 1141.1900 66 24 cbr 210 ------- 0 66.0 67.0 19 19 37.90 -122.30 46.27 -125.34
- 1141.1900 66 24 cbr 210 ------- 0 66.0 67.0 19 19 37.90 -122.30 46.27 -125.34
r 1141.1955 66 24 cbr 210 ------- 0 66.0 67.0 19 19 37.90 -122.30 46.27 -125.34
+ 1141.1955 24 35 cbr 210 ------- 0 66.0 67.0 19 19 46.27 -125.34 29.95 -92.05
- 1141.1955 24 35 cbr 210 ------- 0 66.0 67.0 19 19 46.27 -125.34 29.95 -92.05
r 1141.2081 24 35 cbr 210 ------- 0 66.0 67.0 19 19 46.27 -125.34 29.95 -92.05
+ 1141.2081 35 46 cbr 210 ------- 0 66.0 67.0 19 19 29.95 -92.05 46.27 -62.14
- 1141.2081 35 46 cbr 210 ------- 0 66.0 67.0 19 19 29.95 -92.05 46.27 -62.14
r 1141.2199 35 46 cbr 210 ------- 0 66.0 67.0 19 19 29.95 -92.05 46.26 -62.14
+ 1141.2199 46 67 cbr 210 ------- 0 66.0 67.0 19 19 46.26 -62.14 42.30 -71.10
- 1141.2199 46 67 cbr 210 ------- 0 66.0 67.0 19 19 46.26 -62.14 42.30 -71.10
r 1141.2251 46 67 cbr 210 ------- 0 66.0 67.0 19 19 46.26 -62.14 42.30 -71.10
+ 1201.2000 66 24 cbr 210 ------- 0 66.0 67.0 20 20 37.90 -122.30 42.70 -125.15
- 1201.2000 66 24 cbr 210 ------- 0 66.0 67.0 20 20 37.90 -122.30 42.70 -125.15
r 1201.2045 66 24 cbr 210 ------- 0 66.0 67.0 20 20 37.90 -122.30 42.70 -125.15
+ 1201.2045 24 35 cbr 210 ------- 0 66.0 67.0 20 20 42.70 -125.15 26.37 -92.01
- 1201.2045 24 35 cbr 210 ------- 0 66.0 67.0 20 20 42.70 -125.15 26.37 -92.01
r 1201.2176 24 35 cbr 210 ------- 0 66.0 67.0 20 20 42.69 -125.15 26.37 -92.01
+ 1201.2176 35 46 cbr 210 ------- 0 66.0 67.0 20 20 26.37 -92.01 42.69 -61.95
- 1201.2176 35 46 cbr 210 ------- 0 66.0 67.0 20 20 26.37 -92.01 42.69 -61.95
r 1201.2298 35 46 cbr 210 ------- 0 66.0 67.0 20 20 26.37 -92.01 42.69 -61.95
+ 1201.2298 46 67 cbr 210 ------- 0 66.0 67.0 20 20 42.69 -61.95 42.30 -71.10
- 1201.2298 46 67 cbr 210 ------- 0 66.0 67.0 20 20 42.69 -61.95 42.30 -71.10
r 1201.2347 46 67 cbr 210 ------- 0 66.0 67.0 20 20 42.69 -61.95 42.30 -71.10
+ 1261.2100 66 24 cbr 210 ------- 0 66.0 67.0 21 21 37.90 -122.30 39.12 -125.00
- 1261.2100 66 24 cbr 210 ------- 0 66.0 67.0 21 21 37.90 -122.30 39.12 -125.00
r 1261.2140 66 24 cbr 210 ------- 0 66.0 67.0 21 21 37.90 -122.30 39.12 -125.00
+ 1261.2140 24 35 cbr 210 ------- 0 66.0 67.0 21 21 39.12 -125.00 22.80 -91.98
- 1261.2140 24 35 cbr 210 ------- 0 66.0 67.0 21 21 39.12 -125.00 22.80 -91.98
r 1261.2274 24 35 cbr 210 ------- 0 66.0 67.0 21 21 39.12 -125.00 22.80 -91.98
+ 1261.2274 35 46 cbr 210 ------- 0 66.0 67.0 21 21 22.80 -91.98 39.12 -61.80
- 1261.2274 35 46 cbr 210 ------- 0 66.0 67.0 21 21 22.80 -91.98 39.12 -61.80
r 1261.2400 35 46 cbr 210 ------- 0 66.0 67.0 21 21 22.80 -91.98 39.12 -61.80
+ 1261.2400 46 67 cbr 210 ------- 0 66.0 67.0 21 21 39.12 -61.80 42.30 -71.10
- 1261.2400 46 67 cbr 210 ------- 0 66.0 67.0 21 21 39.12 -61.80 42.30 -71.10
r 1261.2452 46 67 cbr 210 ------- 0 66.0 67.0 21 21 39.12 -61.80 42.30 -71.10
+ 1321.2200 66 24 cbr 210 ------- 0 66.0 67.0 22 22 37.90 -122.30 35.55 -124.90
- 1321.2200 66 24 cbr 210 ------- 0 66.0 67.0 22 22 37.90 -122.30 35.55 -124.90
r 1321.2241 66 24 cbr 210 ------- 0 66.0 67.0 22 22 37.90 -122.30 35.55 -124.90
+ 1321.2241 24 35 cbr 210 ------- 0 66.0 67.0 22 22 35.55 -124.90 19.22 -91.98
- 1321.2241 24 35 cbr 210 ------- 0 66.0 67.0 22 22 35.55 -124.90 19.22 -91.98
r 1321.2378 24 35 cbr 210 ------- 0 66.0 67.0 22 22 35.55 -124.90 19.22 -91.98
+ 1321.2378 35 46 cbr 210 ------- 0 66.0 67.0 22 22 19.22 -91.98 35.55 -61.70
- 1321.2378 35 46 cbr 210 ------- 0 66.0 67.0 22 22 19.22 -91.98 35.55 -61.70
r 1321.2508 35 46 cbr 210 ------- 0 66.0 67.0 22 22 19.22 -91.98 35.55 -61.70
+ 1321.2508 46 67 cbr 210 ------- 0 66.0 67.0 22 22 35.55 -61.70 42.30 -71.10
- 1321.2508 46 67 cbr 210 ------- 0 66.0 67.0 22 22 35.55 -61.70 42.30 -71.10
r 1321.2567 46 67 cbr 210 ------- 0 66.0 67.0 22 22 35.55 -61.70 42.30 -71.10
+ 1381.2300 66 24 cbr 210 ------- 0 66.0 67.0 23 23 37.90 -122.30 31.98 -124.82
- 1381.2300 66 24 cbr 210 ------- 0 66.0 67.0 23 23 37.90 -122.30 31.98 -124.82
r 1381.2348 66 24 cbr 210 ------- 0 66.0 67.0 23 23 37.90 -122.30 31.98 -124.82
+ 1381.2348 24 35 cbr 210 ------- 0 66.0 67.0 23 23 31.98 -124.82 15.64 -91.98
- 1381.2348 24 35 cbr 210 ------- 0 66.0 67.0 23 23 31.98 -124.82 15.64 -91.98
r 1381.2488 24 35 cbr 210 ------- 0 66.0 67.0 23 23 31.98 -124.82 15.64 -91.98
+ 1381.2488 35 46 cbr 210 ------- 0 66.0 67.0 23 23 15.64 -91.98 31.98 -61.62
- 1381.2488 35 46 cbr 210 ------- 0 66.0 67.0 23 23 15.64 -91.98 31.98 -61.62
r 1381.2621 35 46 cbr 210 ------- 0 66.0 67.0 23 23 15.64 -91.98 31.97 -61.62
+ 1381.2621 46 67 cbr 210 ------- 0 66.0 67.0 23 23 31.97 -61.62 42.30 -71.10
- 1381.2621 46 67 cbr 210 ------- 0 66.0 67.0 23 23 31.97 -61.62 42.30 -71.10
r 1381.2689 46 67 cbr 210 ------- 0 66.0 67.0 23 23 31.97 -61.62 42.30 -71.10
+ 1441.2400 66 24 cbr 210 ------- 0 66.0 67.0 24 24 37.90 -122.30 28.40 -124.77
- 1441.2400 66 24 cbr 210 ------- 0 66.0 67.0 24 24 37.90 -122.30 28.40 -124.77
r 1441.2458 66 24 cbr 210 ------- 0 66.0 67.0 24 24 37.90 -122.30 28.40 -124.77
+ 1441.2458 24 35 cbr 210 ------- 0 66.0 67.0 24 24 28.40 -124.77 12.07 -91.99
- 1441.2458 24 35 cbr 210 ------- 0 66.0 67.0 24 24 28.40 -124.77 12.07 -91.99
r 1441.2601 24 35 cbr 210 ------- 0 66.0 67.0 24 24 28.40 -124.77 12.07 -91.99
+ 1441.2601 35 46 cbr 210 ------- 0 66.0 67.0 24 24 12.07 -91.99 28.40 -61.57
- 1441.2601 35 46 cbr 210 ------- 0 66.0 67.0 24 24 12.07 -91.99 28.40 -61.57
r 1441.2736 35 46 cbr 210 ------- 0 66.0 67.0 24 24 12.07 -91.99 28.40 -61.57
+ 1441.2736 46 67 cbr 210 ------- 0 66.0 67.0 24 24 28.40 -61.57 42.30 -71.10
- 1441.2736 46 67 cbr 210 ------- 0 66.0 67.0 24 24 28.40 -61.57 42.30 -71.10
r 1441.2816 46 67 cbr 210 ------- 0 66.0 67.0 24 24 28.40 -61.57 42.30 -71.10
+ 1501.2500 66 24 cbr 210 ------- 0 66.0 67.0 25 25 37.90 -122.30 24.83 -124.74
- 1501.2500 66 24 cbr 210 ------- 0 66.0 67.0 25 25 37.90 -122.30 24.83 -124.74
r 1501.2570 66 24 cbr 210 ------- 0 66.0 67.0 25 25 37.90 -122.30 24.83 -124.74
+ 1501.2570 24 35 cbr 210 ------- 0 66.0 67.0 25 25 24.83 -124.74 8.49 -92.01
- 1501.2570 24 35 cbr 210 ------- 0 66.0 67.0 25 25 24.83 -124.74 8.49 -92.01
r 1501.2715 24 35 cbr 210 ------- 0 66.0 67.0 25 25 24.82 -124.74 8.49 -92.01
+ 1501.2715 35 46 cbr 210 ------- 0 66.0 67.0 25 25 8.49 -92.01 24.82 -61.54
- 1501.2715 35 46 cbr 210 ------- 0 66.0 67.0 25 25 8.49 -92.01 24.82 -61.54
r 1501.2853 35 46 cbr 210 ------- 0 66.0 67.0 25 25 8.49 -92.01 24.82 -61.54
+ 1501.2853 46 67 cbr 210 ------- 0 66.0 67.0 25 25 24.82 -61.54 42.30 -71.10
- 1501.2853 46 67 cbr 210 ------- 0 66.0 67.0 25 25 24.82 -61.54 42.30 -71.10
r 1501.2944 46 67 cbr 210 ------- 0 66.0 67.0 25 25 24.82 -61.54 42.30 -71.10
+ 1561.2600 66 24 cbr 210 ------- 0 66.0 67.0 26 26 37.90 -122.30 21.25 -124.72
- 1561.2600 66 24 cbr 210 ------- 0 66.0 67.0 26 26 37.90 -122.30 21.25 -124.72
r 1561.2683 66 24 cbr 210 ------- 0 66.0 67.0 26 26 37.90 -122.30 21.25 -124.72
+ 1561.2683 24 23 cbr 210 ------- 0 66.0 67.0 26 26 21.25 -124.72 53.86 -128.26
- 1561.2683 24 23 cbr 210 ------- 0 66.0 67.0 26 26 21.25 -124.72 53.86 -128.26
r 1561.2818 24 23 cbr 210 ------- 0 66.0 67.0 26 26 21.25 -124.72 53.86 -128.26
+ 1561.2818 23 34 cbr 210 ------- 0 66.0 67.0 26 26 53.86 -128.26 37.56 -94.50
- 1561.2818 23 34 cbr 210 ------- 0 66.0 67.0 26 26 53.86 -128.26 37.56 -94.50
r 1561.2935 23 34 cbr 210 ------- 0 66.0 67.0 26 26 53.86 -128.26 37.56 -94.50
+ 1561.2935 34 45 cbr 210 ------- 0 66.0 67.0 26 26 37.56 -94.50 53.86 -65.06
- 1561.2935 34 45 cbr 210 ------- 0 66.0 67.0 26 26 37.56 -94.50 53.86 -65.06
r 1561.3043 34 45 cbr 210 ------- 0 66.0 67.0 26 26 37.56 -94.50 53.86 -65.06
+ 1561.3043 45 67 cbr 210 ------- 0 66.0 67.0 26 26 53.86 -65.06 42.30 -71.10
- 1561.3043 45 67 cbr 210 ------- 0 66.0 67.0 26 26 53.86 -65.06 42.30 -71.10
r 1561.3110 45 67 cbr 210 ------- 0 66.0 67.0 26 26 53.85 -65.06 42.30 -71.10
+ 1621.2700 66 23 cbr 210 ------- 0 66.0 67.0 27 27 37.90 -122.30 50.29 -127.92
- 1621.2700 66 23 cbr 210 ------- 0 66.0 67.0 27 27 37.90 -122.30 50.29 -127.92
r 1621.2769 66 23 cbr 210 ------- 0 66.0 67.0 27 27 37.90 -122.30 50.29 -127.92
+ 1621.2769 23 34 cbr 210 ------- 0 66.0 67.0 27 27 50.29 -127.92 33.99 -94.41
- 1621.2769 23 34 cbr 210 ------- 0 66.0 67.0 27 27 50.29 -127.92 33.99 -94.41
r 1621.2891 23 34 cbr 210 ------- 0 66.0 67.0 27 27 50.29 -127.92 33.99 -94.41
+ 1621.2891 34 45 cbr 210 ------- 0 66.0 67.0 27 27 33.99 -94.41 50.29 -64.72
- 1621.2891 34 45 cbr 210 ------- 0 66.0 67.0 27 27 33.99 -94.41 50.29 -64.72
r 1621.3004 34 45 cbr 210 ------- 0 66.0 67.0 27 27 33.99 -94.41 50.29 -64.72
+ 1621.3004 45 67 cbr 210 ------- 0 66.0 67.0 27 27 50.29 -64.72 42.30 -71.10
- 1621.3004 45 67 cbr 210 ------- 0 66.0 67.0 27 27 50.29 -64.72 42.30 -71.10
r 1621.3060 45 67 cbr 210 ------- 0 66.0 67.0 27 27 50.29 -64.72 42.30 -71.10
+ 1681.2800 66 23 cbr 210 ------- 0 66.0 67.0 28 28 37.90 -122.30 46.72 -127.66
- 1681.2800 66 23 cbr 210 ------- 0 66.0 67.0 28 28 37.90 -122.30 46.72 -127.66
r 1681.2858 66 23 cbr 210 ------- 0 66.0 67.0 28 28 37.90 -122.30 46.72 -127.66
+ 1681.2858 23 34 cbr 210 ------- 0 66.0 67.0 28 28 46.72 -127.66 30.42 -94.34
- 1681.2858 23 34 cbr 210 ------- 0 66.0 67.0 28 28 46.72 -127.66 30.42 -94.34
r 1681.2984 23 34 cbr 210 ------- 0 66.0 67.0 28 28 46.72 -127.66 30.42 -94.34
+ 1681.2984 34 45 cbr 210 ------- 0 66.0 67.0 28 28 30.42 -94.34 46.72 -64.46
- 1681.2984 34 45 cbr 210 ------- 0 66.0 67.0 28 28 30.42 -94.34 46.72 -64.46
r 1681.3101 34 45 cbr 210 ------- 0 66.0 67.0 28 28 30.42 -94.34 46.72 -64.46
+ 1681.3101 45 67 cbr 210 ------- 0 66.0 67.0 28 28 46.72 -64.46 42.30 -71.10
- 1681.3101 45 67 cbr 210 ------- 0 66.0 67.0 28 28 46.72 -64.46 42.30 -71.10
r 1681.3150 45 67 cbr 210 ------- 0 66.0 67.0 28 28 46.72 -64.46 42.30 -71.10
+ 1741.2900 66 23 cbr 210 ------- 0 66.0 67.0 29 29 37.90 -122.30 43.15 -127.46
- 1741.2900 66 23 cbr 210 ------- 0 66.0 67.0 29 29 37.90 -122.30 43.15 -127.46
r 1741.2949 66 23 cbr 210 ------- 0 66.0 67.0 29 29 37.90 -122.30 43.15 -127.46
+ 1741.2949 23 34 cbr 210 ------- 0 66.0 67.0 29 29 43.15 -127.46 26.84 -94.30
- 1741.2949 23 34 cbr 210 ------- 0 66.0 67.0 29 29 43.15 -127.46 26.84 -94.30
r 1741.3079 23 34 cbr 210 ------- 0 66.0 67.0 29 29 43.15 -127.46 26.84 -94.30
+ 1741.3079 34 45 cbr 210 ------- 0 66.0 67.0 29 29 26.84 -94.30 43.15 -64.26
- 1741.3079 34 45 cbr 210 ------- 0 66.0 67.0 29 29 26.84 -94.30 43.15 -64.26
r 1741.3200 34 45 cbr 210 ------- 0 66.0 67.0 29 29 26.84 -94.30 43.15 -64.26
+ 1741.3200 45 67 cbr 210 ------- 0 66.0 67.0 29 29 43.15 -64.26 42.30 -71.10
- 1741.3200 45 67 cbr 210 ------- 0 66.0 67.0 29 29 43.15 -64.26 42.30 -71.10
r 1741.3245 45 67 cbr 210 ------- 0 66.0 67.0 29 29 43.15 -64.26 42.30 -71.10
+ 1801.3000 66 23 cbr 210 ------- 0 66.0 67.0 30 30 37.90 -122.30 39.58 -127.31
- 1801.3000 66 23 cbr 210 ------- 0 66.0 67.0 30 30 37.90 -122.30 39.58 -127.31
r 1801.3043 66 23 cbr 210 ------- 0 66.0 67.0 30 30 37.90 -122.30 39.58 -127.31
+ 1801.3043 23 34 cbr 210 ------- 0 66.0 67.0 30 30 39.58 -127.31 23.27 -94.28
- 1801.3043 23 34 cbr 210 ------- 0 66.0 67.0 30 30 39.58 -127.31 23.27 -94.28
r 1801.3177 23 34 cbr 210 ------- 0 66.0 67.0 30 30 39.58 -127.31 23.27 -94.28
+ 1801.3177 34 45 cbr 210 ------- 0 66.0 67.0 30 30 23.27 -94.28 39.58 -64.11
- 1801.3177 34 45 cbr 210 ------- 0 66.0 67.0 30 30 23.27 -94.28 39.58 -64.11
r 1801.3302 34 45 cbr 210 ------- 0 66.0 67.0 30 30 23.26 -94.28 39.58 -64.11
+ 1801.3302 45 67 cbr 210 ------- 0 66.0 67.0 30 30 39.58 -64.11 42.30 -71.10
- 1801.3302 45 67 cbr 210 ------- 0 66.0 67.0 30 30 39.58 -64.11 42.30 -71.10
r 1801.3349 45 67 cbr 210 ------- 0 66.0 67.0 30 30 39.58 -64.11 42.30 -71.10