+ 1.0000 66 26 cbr 210 ------- 0 66.0 67.0 0 0 37.90 -122.30 48.90 -120.94
- 1.0000 66 26 cbr 210 ------- 0 66.0 67.0 0 0 37.90 -122.30 48.90 -120.94
r 1.0063 66 26 cbr 210 ------- 0 66.0 67.0 0 0 37.90 -122.30 48.90 -120.94
+ 1.0063 26 37 cbr 210 ------- 0 66.0 67.0 0 0 48.90 -120.94 32.60 -87.51
- 1.0063 26 37 cbr 210 ------- 0 66.0 67.0 0 0 48.90 -120.94 32.60 -87.51
r 1.0186 26 37 cbr 210 ------- 0 66.0 67.0 0 0 48.90 -120.94 32.60 -87.51
+ 1.0186 37 48 cbr 210 ------- 0 66.0 67.0 0 0 32.60 -87.51 48.90 -57.74
- 1.0186 37 48 cbr 210 ------- 0 66.0 67.0 0 0 32.60 -87.51 48.90 -57.74
r 1.0300 37 48 cbr 210 ------- 0 66.0 67.0 0 0 32.60 -87.51 48.90 -57.74
+ 1.0300 48 67 cbr 210 ------- 0 66.0 67.0 0 0 48.90 -57.74 42.30 -71.10
- 1.0300 48 67 cbr 210 ------- 0 66.0 67.0 0 0 48.90 -57.74 42.30 -71.10
r 1.0364 48 67 cbr 210 ------- 0 66.0 67.0 0 0 48.90 -57.74 42.30 -71.10
+ 1.5000 66 26 cbr 210 ------- 0 66.0 67.0 1 1 37.90 -122.30 48.87 -120.94
- 1.5000 66 26 cbr 210 ------- 0 66.0 67.0 1 1 37.90 -122.30 48.87 -120.94
r 1.5063 66 26 cbr 210 ------- 0 66.0 67.0 1 1 37.90 -122.30 48.87 -120.94
+ 1.5063 26 37 cbr 210 ------- 0 66.0 67.0 1 1 48.87 -120.94 32.57 -87.51
- 1.5063 26 37 cbr 210 ------- 0 66.0 67.0 1 1 48.87 -120.94 32.57 -87.51
r 1.5186 26 37 cbr 210 ------- 0 66.0 67.0 1 1 48.87 -120.94 32.57 -87.51
+ 1.5186 37 48 cbr 210 ------- 0 66.0 67.0 1 1 32.57 -87.51 48.87 -57.74
- 1.5186 37 48 cbr 210 ------- 0 66.0 67.0 1 1 32.57 -87.51 48.87 -57.74
r 1.5300 37 48 cbr 210 ------- 0 66.0 67.0 1 1 32.57 -87.51 48.87 -57.74
+ 1.5300 48 67 cbr 210 ------- 0 66.0 67.0 1 1 48.87 -57.74 42.30 -71.10
- 1.5300 48 67 cbr 210 ------- 0 66.0 67.0 1 1 48.87 -57.74 42.30 -71.10
r 1.5364 48 67 cbr 210 ------- 0 66.0 67.0 1 1 48.87 -57.74 42.30 -71.10
+ 2.0000 66 26 cbr 210 ------- 0 66.0 67.0 2 2 37.90 -122.30 48.84 -120.94
- 2.0000 66 26 cbr 210 ------- 0 66.0 67.0 2 2 37.90 -122.30 48.84 -120.94
r 2.0062 66 26 cbr 210 ------- 0 66.0 67.0 2 2 37.90 -122.30 48.84 -120.94
+ 2.0062 26 37 cbr 210 ------- 0 66.0 67.0 2 2 48.84 -120.94 32.54 -87.51
- 2.0062 26 37 cbr 210 ------- 0 66.0 67.0 2 2 48.84 -120.94 32.54 -87.51
r 2.0186 26 37 cbr 210 ------- 0 66.0 67.0 2 2 48.84 -120.94 32.54 -87.51
+ 2.0186 37 48 cbr 210 ------- 0 66.0 67.0 2 2 32.54 -87.51 48.84 -57.74
- 2.0186 37 48 cbr 210 ------- 0 66.0 67.0 2 2 32.54 -87.51 48.84 -57.74
r 2.0300 37 48 cbr 210 ------- 0 66.0 67.0 2 2 32.54 -87.51 48.84 -57.74
+ 2.0300 48 67 cbr 210 ------- 0 66.0 67.0 2 2 48.84 -57.74 42.30 -71.10
- 2.0300 48 67 cbr 210 ------- 0 66.0 67.0 2 2 48.84 -57.74 42.30 -71.10
r 2.0364 48 67 cbr 210 ------- 0 66.0 67.0 2 2 48.84 -57.74 42.30 -71.10
+ 2.5000 66 26 cbr 210 ------- 0 66.0 67.0 3 3 37.90 -122.30 48.81 -120.93
- 2.5000 66 26 cbr 210 ------- 0 66.0 67.0 3 3 37.90 -122.30 48.81 -120.93
r 2.5062 66 26 cbr 210 ------- 0 66.0 67.0 3 3 37.90 -122.30 48.81 -120.93
+ 2.5062 26 37 cbr 210 ------- 0 66.0 67.0 3 3 48.81 -120.93 32.51 -87.51
- 2.5062 26 37 cbr 210 ------- 0 66.0 67.0 3 3 48.81 -120.93 32.51 -87.51
r 2.5186 26 37 cbr 210 ------- 0 66.0 67.0 3 3 48.81 -120.93 32.51 -87.51
+ 2.5186 37 48 cbr 210 ------- 0 66.0 67.0 3 3 32.51 -87.51 48.81 -57.73
- 2.5186 37 48 cbr 210 ------- 0 66.0 67.0 3 3 32.51 -87.51 48.81 -57.73
r 2.5300 37 48 cbr 210 ------- 0 66.0 67.0 3 3 32.51 -87.51 48.81 -57.73
+ 2.5300 48 67 cbr 210 ------- 0 66.0 67.0 3 3 48.81 -57.73 42.30 -71.10
- 2.5300 48 67 cbr 210 ------- 0 66.0 67.0 3 3 48.81 -57.73 42.30 -71.10
r 2.5364 48 67 cbr 210 ------- 0 66.0 67.0 3 3 48.81 -57.73 42.30 -71.10
+ 3.0000 66 26 cbr 210 ------- 0 66.0 67.0 4 4 37.90 -122.30 48.78 -120.93
- 3.0000 66 26 cbr 210 ------- 0 66.0 67.0 4 4 37.90 -122.30 48.78 -120.93
r 3.0062 66 26 cbr 210 ------- 0 66.0 67.0 4 4 37.90 -122.30 48.78 -120.93
+ 3.0062 26 37 cbr 210 ------- 0 66.0 67.0 4 4 48.78 -120.93 32.48 -87.51
- 3.0062 26 37 cbr 210 ------- 0 66.0 67.0 4 4 48.78 -120.93 32.48 -87.51
r 3.0186 26 37 cbr 210 ------- 0 66.0 67.0 4 4 48.78 -120.93 32.48 -87.51
+ 3.0186 37 48 cbr 210 ------- 0 66.0 67.0 4 4 32.48 -87.51 48.78 -57.73
- 3.0186 37 48 cbr 210 ------- 0 66.0 67.0 4 4 32.48 -87.51 48.78 -57.73
r 3.0300 37 48 cbr 210 ------- 0 66.0 67.0 4 4 32.48 -87.51 48.78 -57.73
+ 3.0300 48 67 cbr 210 ------- 0 66.0 67.0 4 4 48.78 -57.73 42.30 -71.10
- 3.0300 48 67 cbr 210 ------- 0 66.0 67.0 4 4 48.78 -57.73 42.30 -71.10
r 3.0364 48 67 cbr 210 ------- 0 66.0 67.0 4 4 48.78 -57.73 42.30 -71.10
+ 3.5000 66 26 cbr 210 ------- 0 66.0 67.0 5 5 37.90 -122.30 48.75 -120.93
- 3.5000 66 26 cbr 210 ------- 0 66.0 67.0 5 5 37.90 -122.30 48.75 -120.93
r 3.5062 66 26 cbr 210 ------- 0 66.0 67.0 5 5 37.90 -122.30 48.75 -120.93
+ 3.5062 26 37 cbr 210 ------- 0 66.0 67.0 5 5 48.75 -120.93 32.45 -87.51
- 3.5062 26 37 cbr 210 ------- 0 66.0 67.0 5 5 48.75 -120.93 32.45 -87.51
r 3.5186 26 37 cbr 210 ------- 0 66.0 67.0 5 5 48.75 -120.93 32.45 -87.51
+ 3.5186 37 48 cbr 210 ------- 0 66.0 67.0 5 5 32.45 -87.51 48.75 -57.73
- 3.5186 37 48 cbr 210 ------- 0 66.0 67.0 5 5 32.45 -87.51 48.75 -57.73
r 3.5300 37 48 cbr 210 ------- 0 66.0 67.0 5 5 32.45 -87.51 48.75 -57.73
+ 3.5300 48 67 cbr 210 ------- 0 66.0 67.0 5 5 48.75 -57.73 42.30 -71.10
- 3.5300 48 67 cbr 210 ------- 0 66.0 67.0 5 5 48.75 -57.73 42.30 -71.10
r 3.5364 48 67 cbr 210 ------- 0 66.0 67.0 5 5 48.75 -57.73 42.30 -71.10
+ 4.0000 66 26 cbr 210 ------- 0 66.0 67.0 6 6 37.90 -122.30 48.72 -120.93
- 4.0000 66 26 cbr 210 ------- 0 66.0 67.0 6 6 37.90 -122.30 48.72 -120.93
r 4.0062 66 26 cbr 210 ------- 0 66.0 67.0 6 6 37.90 -122.30 48.72 -120.93
+ 4.0062 26 37 cbr 210 ------- 0 66.0 67.0 6 6 48.72 -120.93 32.42 -87.51
- 4.0062 26 37 cbr 210 ------- 0 66.0 67.0 6 6 48.72 -120.93 32.42 -87.51
r 4.0186 26 37 cbr 210 ------- 0 66.0 67.0 6 6 48.72 -120.93 32.42 -87.51
+ 4.0186 37 48 cbr 210 ------- 0 66.0 67.0 6 6 32.42 -87.51 48.72 -57.73
- 4.0186 37 48 cbr 210 ------- 0 66.0 67.0 6 6 32.42 -87.51 48.72 -57.73
r 4.0300 37 48 cbr 210 ------- 0 66.0 67.0 6 6 32.42 -87.51 48.72 -57.73
+ 4.0300 48 67 cbr 210 ------- 0 66.0 67.0 6 6 48.72 -57.73 42.30 -71.10
- 4.0300 48 67 cbr 210 ------- 0 66.0 67.0 6 6 48.72 -57.73 42.30 -71.10
r 4.0364 48 67 cbr 210 ------- 0 66.0 67.0 6 6 48.72 -57.73 42.30 -71.10
+ 4.5000 66 26 cbr 210 ------- 0 66.0 67.0 7 7 37.90 -122.30 48.69 -120.92
- 4.5000 66 26 cbr 210 ------- 0 66.0 67.0 7 7 37.90 -122.30 48.69 -120.92
r 4.5062 66 26 cbr 210 ------- 0 66.0 67.0 7 7 37.90 -122.30 48.69 -120.92
+ 4.5062 26 37 cbr 210 ------- 0 66.0 67.0 7 7 48.69 -120.92 32.39 -87.51
- 4.5062 26 37 cbr 210 ------- 0 66.0 67.0 7 7 48.69 -120.92 32.39 -87.51
r 4.5186 26 37 cbr 210 ------- 0 66.0 67.0 7 7 48.69 -120.92 32.39 -87.51
+ 4.5186 37 48 cbr 210 ------- 0 66.0 67.0 7 7 32.39 -87.51 48.69 -57.72
- 4.5186 37 48 cbr 210 ------- 0 66.0 67.0 7 7 32.39 -87.51 48.69 -57.72
r 4.5300 37 48 cbr 210 ------- 0 66.0 67.0 7 7 32.39 -87.51 48.69 -57.72
+ 4.5300 48 67 cbr 210 ------- 0 66.0 67.0 7 7 48.69 -57.72 42.30 -71.10
- 4.5300 48 67 cbr 210 ------- 0 66.0 67.0 7 7 48.69 -57.72 42.30 -71.10
r 4.5364 48 67 cbr 210 ------- 0 66.0 67.0 7 7 48.69 -57.72 42.30 -71.10
+ 5.0000 66 26 cbr 210 ------- 0 66.0 67.0 8 8 37.90 -122.30 48.66 -120.92
- 5.0000 66 26 cbr 210 ------- 0 66.0 67.0 8 8 37.90 -122.30 48.66 -120.92
r 5.0062 66 26 cbr 210 ------- 0 66.0 67.0 8 8 37.90 -122.30 48.66 -120.92
+ 5.0062 26 37 cbr 210 ------- 0 66.0 67.0 8 8 48.66 -120.92 32.36 -87.51
- 5.0062 26 37 cbr 210 ------- 0 66.0 67.0 8 8 48.66 -120.92 32.36 -87.51
r 5.0185 26 37 cbr 210 ------- 0 66.0 67.0 8 8 48.66 -120.92 32.36 -87.51
+ 5.0185 37 48 cbr 210 ------- 0 66.0 67.0 8 8 32.36 -87.51 48.66 -57.72
- 5.0185 37 48 cbr 210 ------- 0 66.0 67.0 8 8 32.36 -87.51 48.66 -57.72
r 5.0300 37 48 cbr 210 ------- 0 66.0 67.0 8 8 32.36 -87.51 48.66 -57.72
+ 5.0300 48 67 cbr 210 ------- 0 66.0 67.0 8 8 48.66 -57.72 42.30 -71.10
- 5.0300 48 67 cbr 210 ------- 0 66.0 67.0 8 8 48.66 -57.72 42.30 -71.10
r 5.0364 48 67 cbr 210 ------- 0 66.0 67.0 8 8 48.66 -57.72 42.30 -71.10
+ 5.5000 66 26 cbr 210 ------- 0 66.0 67.0 9 9 37.90 -122.30 48.63 -120.92
- 5.5000 66 26 cbr 210 ------- 0 66.0 67.0 9 9 37.90 -122.30 48.63 -120.92
r 5.5062 66 26 cbr 210 ------- 0 66.0 67.0 9 9 37.90 -122.30 48.63 -120.92
+ 