+ 1.0000 66 26 cbr 210 ------- 0 66.0 67.0 0 0 37.90 -122.30 48.90 -120.94
- 1.0000 66 26 cbr 210 ------- 0 66.0 67.0 0 0 37.90 -122.30 48.90 -120.94
r 1.0063 66 26 cbr 210 ------- 0 66.0 67.0 0 0 37.90 -122.30 48.90 -120.94
+ 1.0063 26 37 cbr 210 ------- 0 66.0 67.0 0 0 48.90 -120.94 32.60 -87.51
- 1.0063 26 37 cbr 210 ------- 0 66.0 67.0 0 0 48.90 -120.94 32.60 -87.51
r 1.0186 26 37 cbr 210 ------- 0 66.0 67.0 0 0 48.90 -120.94 32.60 -87.51
+ 1.0186 37 48 cbr 210 ------- 0 66.0 67.0 0 0 32.60 -87.51 48.90 -57.74
- 1.0186 37 48 cbr 210 ------- 0 66.0 67.0 0 0 32.60 -87.51 48.90 -57.74
r 1.0300 37 48 cbr 210 ------- 0 66.0 67.0 0 0 32.60 -87.51 48.90 -57.74
+ 1.0300 48 67 cbr 210 ------- 0 66.0 67.0 0 0 48.90 -57.74 42.30 -71.10
- 1.0300 48 67 cbr 210 ------- 0 66.0 67.0 0 0 48.90 -57.74 42.30 -71.10
r 1.0364 48 67 cbr 210 ------- 0 66.0 67.0 0 0 48.90 -57.74 42.30 -71.10
